# y+ ()       
# Time        	patch         	min           	max           	average       
0.00298507    	BOTTOM	1.832447e-06	4.009962e+00	2.428613e-01
0.00298507    	WALL	2.910521e-03	6.696825e+00	8.476792e-01
0.0043438     	BOTTOM	5.098869e-07	5.222893e+00	3.452991e-01
0.0043438     	WALL	3.304145e-03	7.844762e+00	9.603744e-01
0.00555905    	BOTTOM	7.405898e-07	5.751831e+00	4.125193e-01
0.00555905    	WALL	3.466659e-03	8.833099e+00	1.049385e+00
0.00671644    	BOTTOM	7.084573e-07	6.268217e+00	4.778415e-01
0.00671644    	WALL	3.544048e-03	9.700562e+00	1.123306e+00
0.00777844    	BOTTOM	4.900614e-07	6.698969e+00	5.345812e-01
0.00777844    	WALL	3.556951e-03	1.040583e+01	1.184612e+00
0.00875916    	BOTTOM	3.797282e-07	7.078118e+00	5.860541e-01
0.00875916    	WALL	3.545402e-03	1.103004e+01	1.238914e+00
0.00968751    	BOTTOM	4.038686e-07	7.422675e+00	6.333824e-01
0.00968751    	WALL	3.518803e-03	1.160880e+01	1.289538e+00
0.0105727     	BOTTOM	6.911291e-07	7.736906e+00	6.769675e-01
0.0105727     	WALL	3.446915e-03	1.212192e+01	1.338046e+00
0.0114221     	BOTTOM	5.736664e-07	8.027406e+00	7.175747e-01
0.0114221     	WALL	3.382320e-03	1.254969e+01	1.384943e+00
0.0122456     	BOTTOM	9.384989e-07	8.300410e+00	7.557102e-01
0.0122456     	WALL	3.351672e-03	1.288816e+01	1.431369e+00
0.0130446     	BOTTOM	5.651271e-07	8.556607e+00	7.915663e-01
0.0130446     	WALL	3.348533e-03	1.375677e+01	1.477051e+00
0.0138236     	BOTTOM	7.530968e-07	8.799686e+00	8.255362e-01
0.0138236     	WALL	3.367436e-03	1.467468e+01	1.523544e+00
0.0145897     	BOTTOM	3.419821e-07	9.033331e+00	8.578984e-01
0.0145897     	WALL	3.397607e-03	1.540869e+01	1.571604e+00
0.0153343     	BOTTOM	6.992772e-07	9.252599e+00	8.885130e-01
0.0153343     	WALL	3.418254e-03	1.599625e+01	1.615269e+00
0.0160557     	BOTTOM	5.843743e-07	9.460204e+00	9.176213e-01
0.0160557     	WALL	3.471752e-03	1.711904e+01	1.653652e+00
0.0167578     	BOTTOM	4.915845e-07	9.658457e+00	9.454422e-01
0.0167578     	WALL	3.482980e-03	1.820721e+01	1.687638e+00
0.0174441     	BOTTOM	4.243372e-07	9.848670e+00	9.720655e-01
0.0174441     	WALL	3.508284e-03	1.906648e+01	1.717761e+00
0.0181152     	BOTTOM	1.439241e-07	1.003107e+01	9.975261e-01
0.0181152     	WALL	3.530485e-03	1.974198e+01	1.743880e+00
0.0187742     	BOTTOM	5.692177e-07	1.020743e+01	1.021941e+00
0.0187742     	WALL	3.530215e-03	2.027910e+01	1.767144e+00
0.0194238     	BOTTOM	1.348560e-07	1.037857e+01	1.045402e+00
0.0194238     	WALL	3.518504e-03	2.068500e+01	1.788529e+00
0.0200641     	BOTTOM	5.432500e-07	1.054443e+01	1.067987e+00
0.0200641     	WALL	3.514841e-03	2.093377e+01	1.812566e+00
0.0206977     	BOTTOM	2.670366e-07	1.070642e+01	1.089793e+00
0.0206977     	WALL	3.491534e-03	2.107790e+01	1.837790e+00
0.0213246     	BOTTOM	4.558416e-07	1.086418e+01	1.110912e+00
0.0213246     	WALL	3.461703e-03	2.114457e+01	1.863219e+00
0.0219472     	BOTTOM	5.345270e-07	1.101885e+01	1.131358e+00
0.0219472     	WALL	3.418716e-03	2.115637e+01	1.887831e+00
0.0225654     	BOTTOM	2.719989e-07	1.117019e+01	1.151216e+00
0.0225654     	WALL	3.388411e-03	2.112488e+01	1.911069e+00
0.0231815     	BOTTOM	6.814924e-08	1.131938e+01	1.170500e+00
0.0231815     	WALL	3.355879e-03	2.106465e+01	1.932752e+00
0.0237877     	BOTTOM	9.517388e-08	1.146276e+01	1.189137e+00
0.0237877     	WALL	3.317007e-03	2.098489e+01	1.952544e+00
0.0243938     	BOTTOM	4.317788e-07	1.160656e+01	1.207286e+00
0.0243938     	WALL	3.283260e-03	2.088507e+01	1.970692e+00
0.025         	BOTTOM	1.736513e-07	1.174779e+01	1.224936e+00
0.025         	WALL	3.245750e-03	2.076146e+01	1.987376e+00
0.025614      	BOTTOM	2.721054e-07	1.189071e+01	1.242198e+00
0.025614      	WALL	3.227071e-03	2.062054e+01	2.003351e+00
0.0262238     	BOTTOM	1.436847e-07	1.202832e+01	1.258935e+00
0.0262238     	WALL	3.196108e-03	2.046747e+01	2.018247e+00
0.0268293     	BOTTOM	1.879380e-07	1.216432e+01	1.275170e+00
0.0268293     	WALL	3.192787e-03	2.039293e+01	2.030748e+00
0.0274306     	BOTTOM	3.502161e-07	1.229752e+01	1.290941e+00
0.0274306     	WALL	3.174544e-03	2.090711e+01	2.044608e+00
0.0280256     	BOTTOM	2.909947e-07	1.247077e+01	1.306175e+00
0.0280256     	WALL	3.155426e-03	2.133753e+01	2.059946e+00
0.0286146     	BOTTOM	4.964071e-07	1.264169e+01	1.320885e+00
0.0286146     	WALL	3.142920e-03	2.167569e+01	2.077166e+00
0.0292015     	BOTTOM	1.997812e-07	1.280976e+01	1.335114e+00
0.0292015     	WALL	3.151679e-03	2.192798e+01	2.095048e+00
0.0297864     	BOTTOM	1.176700e-07	1.297498e+01	1.348734e+00
0.0297864     	WALL	3.156337e-03	2.210437e+01	2.112905e+00
0.0303714     	BOTTOM	2.819309e-07	1.313704e+01	1.361652e+00
0.0303714     	WALL	3.163790e-03	2.221891e+01	2.130465e+00
0.0309543     	BOTTOM	2.700352e-07	1.329641e+01	1.373318e+00
0.0309543     	WALL	3.171132e-03	2.227942e+01	2.147043e+00
0.0315372     	BOTTOM	3.526617e-07	1.345304e+01	1.386464e+00
0.0315372     	WALL	3.167901e-03	2.229587e+01	2.162375e+00
0.0321221     	BOTTOM	3.803225e-07	1.360755e+01	1.402534e+00
0.0321221     	WALL	3.160170e-03	2.227342e+01	2.176803e+00
0.0327071     	BOTTOM	4.743721e-07	1.375987e+01	1.418636e+00
0.0327071     	WALL	3.141643e-03	2.222190e+01	2.190286e+00
0.033292      	BOTTOM	1.791697e-07	1.391098e+01	1.434635e+00
0.033292      	WALL	3.130607e-03	2.214575e+01	2.203052e+00
0.033877      	BOTTOM	3.529141e-07	1.406002e+01	1.450512e+00
0.033877      	WALL	3.119898e-03	2.205017e+01	2.214895e+00
0.034464      	BOTTOM	9.935739e-08	1.420725e+01	1.466326e+00
0.034464      	WALL	3.111417e-03	2.193849e+01	2.226189e+00
0.0350531     	BOTTOM	1.382254e-07	1.435267e+01	1.482059e+00
0.0350531     	WALL	3.104855e-03	2.181257e+01	2.238320e+00
0.0356443     	BOTTOM	3.026862e-07	1.449646e+01	1.497702e+00
0.0356443     	WALL	3.107282e-03	2.167471e+01	2.252470e+00
0.0362376     	BOTTOM	3.031352e-07	1.463868e+01	1.513265e+00
0.0362376     	WALL	3.048574e-03	2.152548e+01	2.267876e+00
0.0368246     	BOTTOM	3.770175e-07	1.477936e+01	1.528667e+00
0.0368246     	WALL	2.968248e-03	2.137061e+01	2.283612e+00
0.0374073     	BOTTOM	9.493064e-08	1.491862e+01	1.543944e+00
0.0374073     	WALL	2.895640e-03	2.121384e+01	2.299136e+00
0.037986      	BOTTOM	1.138552e-07	1.505631e+01	1.559082e+00
0.037986      	WALL	2.823722e-03	2.106699e+01	2.314309e+00
0.0385625     	BOTTOM	1.507405e-07	1.519293e+01	1.574129e+00
0.0385625     	WALL	2.792941e-03	2.095222e+01	2.328741e+00
0.039137      	BOTTOM	4.023597e-07	1.532818e+01	1.589039e+00
0.039137      	WALL	2.781704e-03	2.086570e+01	2.342331e+00
0.0397115     	BOTTOM	4.355680e-07	1.546190e+01	1.603836e+00
0.0397115     	WALL	2.753297e-03	2.094501e+01	2.355093e+00
0.0402861     	BOTTOM	4.293062e-07	1.559413e+01	1.618511e+00
0.0402861     	WALL	2.728001e-03	2.101085e+01	2.367028e+00
0.0408626     	BOTTOM	8.805845e-08	1.572497e+01	1.633096e+00
0.0408626     	WALL	2.669557e-03	2.105804e+01	2.378274e+00
0.0414413     	BOTTOM	2.959985e-07	1.585451e+01	1.647638e+00
0.0414413     	WALL	2.612271e-03	2.108534e+01	2.389032e+00
0.0420221     	BOTTOM	1.831595e-07	1.598288e+01	1.662120e+00
0.0420221     	WALL	2.574312e-03	2.109701e+01	2.399614e+00
0.0426072     	BOTTOM	2.324892e-07	1.611010e+01	1.676531e+00
0.0426072     	WALL	2.533769e-03	2.109745e+01	2.410373e+00
0.0431945     	BOTTOM	2.408234e-07	1.623633e+01	1.690874e+00
0.0431945     	WALL	2.431233e-03	2.108806e+01	2.421201e+00
0.0437862     	BOTTOM	1.257018e-07	1.636174e+01	1.705205e+00
0.0437862     	WALL	2.371611e-03	2.106887e+01	2.431524e+00
0.0443802     	BOTTOM	4.267394e-07	1.648644e+01	1.719458e+00
0.0443802     	WALL	2.310560e-03	2.104128e+01	2.442199e+00
0.0449787     	BOTTOM	1.544868e-07	1.661060e+01	1.733658e+00
0.0449787     	WALL	2.284356e-03	2.100558e+01	2.453388e+00
0.0455796     	BOTTOM	7.623020e-07	1.673455e+01	1.747828e+00
0.0455796     	WALL	2.211990e-03	2.095988e+01	2.464506e+00
0.0461828     	BOTTOM	4.921197e-07	1.685783e+01	1.761968e+00
0.0461828     	WALL	2.057306e-03	2.090432e+01	2.475154e+00
0.0467884     	BOTTOM	1.431935e-07	1.698046e+01	1.776087e+00
0.0467884     	WALL	1.955913e-03	2.084327e+01	2.485315e+00
0.0473964     	BOTTOM	9.865036e-08	1.710248e+01	1.790153e+00
0.0473964     	WALL	1.913655e-03	2.077938e+01	2.495490e+00
0.0480068     	BOTTOM	3.745235e-07	1.722388e+01	1.804215e+00
0.0480068     	WALL	1.914493e-03	2.071180e+01	2.507199e+00
0.0486197     	BOTTOM	5.080620e-07	1.734473e+01	1.818275e+00
0.0486197     	WALL	1.965133e-03	2.063868e+01	2.522003e+00
0.0493098     	BOTTOM	3.624769e-07	1.746576e+01	1.832985e+00
0.0493098     	WALL	1.867017e-03	2.055335e+01	2.540290e+00
0.05          	BOTTOM	6.697357e-07	1.758763e+01	1.847507e+00
0.05          	WALL	1.722339e-03	2.046222e+01	2.558751e+00
0.0506198     	BOTTOM	4.308830e-07	1.770936e+01	1.861412e+00
0.0506198     	WALL	1.583721e-03	2.040195e+01	2.575118e+00
0.0512423     	BOTTOM	1.990741e-07	1.783028e+01	1.875396e+00
0.0512423     	WALL	1.470050e-03	2.034433e+01	2.591813e+00
0.0518673     	BOTTOM	3.204531e-07	1.795052e+01	1.889305e+00
0.0518673     	WALL	1.497040e-03	2.027894e+01	2.608744e+00
0.052495      	BOTTOM	5.470279e-08	1.807026e+01	1.903197e+00
0.052495      	WALL	1.463628e-03	2.020873e+01	2.625621e+00
0.0531253     	BOTTOM	4.792805e-07	1.818937e+01	1.917057e+00
0.0531253     	WALL	1.329231e-03	2.011818e+01	2.644078e+00
0.0537584     	BOTTOM	4.655653e-07	1.830809e+01	1.930886e+00
0.0537584     	WALL	1.111345e-03	2.000561e+01	2.664758e+00
0.0543915     	BOTTOM	1.921487e-07	1.842666e+01	1.944649e+00
0.0543915     	WALL	9.604182e-04	1.989154e+01	2.685301e+00
0.0550273     	BOTTOM	4.623985e-07	1.854467e+01	1.958393e+00
0.0550273     	WALL	9.296357e-04	1.977745e+01	2.704753e+00
0.055666      	BOTTOM	5.251588e-07	1.866214e+01	1.972074e+00
0.055666      	WALL	8.895866e-04	1.970790e+01	2.723730e+00
0.0563046     	BOTTOM	2.273168e-07	1.877910e+01	1.985719e+00
0.0563046     	WALL	8.954365e-04	1.971250e+01	2.743113e+00
0.0569461     	BOTTOM	4.024920e-07	1.889552e+01	1.999348e+00
0.0569461     	WALL	8.994584e-04	1.970840e+01	2.762083e+00
0.0575905     	BOTTOM	2.664876e-07	1.901147e+01	2.012934e+00
0.0575905     	WALL	9.093421e-04	1.969754e+01	2.780302e+00
0.0582349     	BOTTOM	7.485080e-08	1.912692e+01	2.026449e+00
0.0582349     	WALL	9.145326e-04	1.968397e+01	2.797741e+00
0.0588822     	BOTTOM	1.298144e-07	1.924190e+01	2.039929e+00
0.0588822     	WALL	9.227011e-04	1.966781e+01	2.814296e+00
0.0595325     	BOTTOM	5.864256e-07	1.935642e+01	2.053378e+00
0.0595325     	WALL	9.350138e-04	1.964560e+01	2.832619e+00
0.0601859     	BOTTOM	3.998912e-07	1.947054e+01	2.066793e+00
0.0601859     	WALL	9.857442e-04	1.961909e+01	2.854080e+00
0.0608423     	BOTTOM	3.232599e-07	1.958426e+01	2.080194e+00
0.0608423     	WALL	1.029750e-03	1.958713e+01	2.875466e+00
0.0615049     	BOTTOM	6.156316e-07	1.969762e+01	2.093594e+00
0.0615049     	WALL	1.090845e-03	1.955309e+01	2.896594e+00
0.0621708     	BOTTOM	3.555562e-07	1.981071e+01	2.106973e+00
0.0621708     	WALL	1.108826e-03	1.951602e+01	2.915803e+00
0.0628399     	BOTTOM	6.087530e-07	1.992370e+01	2.120330e+00
0.0628399     	WALL	1.158192e-03	1.947571e+01	2.932807e+00
0.0635155     	BOTTOM	5.965120e-07	2.003644e+01	2.133689e+00
0.0635155     	WALL	1.315848e-03	1.943079e+01	2.947915e+00
0.0641945     	BOTTOM	2.838940e-07	2.014949e+01	2.147019e+00
0.0641945     	WALL	1.478333e-03	1.937989e+01	2.961731e+00
0.064877      	BOTTOM	3.559392e-07	2.026251e+01	2.160335e+00
0.064877      	WALL	1.615569e-03	1.932377e+01	2.974861e+00
0.0655629     	BOTTOM	7.438067e-07	2.037536e+01	2.173617e+00
0.0655629     	WALL	1.720126e-03	1.926625e+01	2.989632e+00
0.0662523     	BOTTOM	4.205743e-07	2.048804e+01	2.186882e+00
0.0662523     	WALL	1.822191e-03	1.920585e+01	3.002447e+00
0.0669453     	BOTTOM	4.779522e-07	2.060055e+01	2.200150e+00
0.0669453     	WALL	1.908013e-03	1.914064e+01	3.014849e+00
0.0676419     	BOTTOM	2.041590e-07	2.071291e+01	2.213406e+00
0.0676419     	WALL	1.982852e-03	1.907039e+01	3.026550e+00
0.0683422     	BOTTOM	3.950697e-07	2.082511e+01	2.226650e+00
0.0683422     	WALL	2.042909e-03	1.899502e+01	3.036299e+00
0.0690425     	BOTTOM	7.259902e-07	2.093715e+01	2.239852e+00
0.0690425     	WALL	2.113134e-03	1.891474e+01	3.044835e+00
0.0697466     	BOTTOM	3.011196e-07	2.104900e+01	2.253036e+00
0.0697466     	WALL	2.172179e-03	1.882904e+01	3.057373e+00
0.0704507     	BOTTOM	6.143587e-07	2.116066e+01	2.266166e+00
0.0704507     	WALL	2.150193e-03	1.873870e+01	3.073912e+00
0.0711586     	BOTTOM	2.942008e-07	2.127210e+01	2.279288e+00
0.0711586     	WALL	2.170852e-03	1.864220e+01	3.090371e+00
0.0718665     	BOTTOM	3.968975e-07	2.138332e+01	2.292334e+00
0.0718665     	WALL	2.116127e-03	1.854172e+01	3.105276e+00
0.0725784     	BOTTOM	3.567655e-07	2.149427e+01	2.305369e+00
0.0725784     	WALL	2.069426e-03	1.843819e+01	3.119755e+00
0.0732902     	BOTTOM	5.395274e-07	2.160495e+01	2.318343e+00
0.0732902     	WALL	1.934351e-03	1.833341e+01	3.133017e+00
0.0741451     	BOTTOM	1.232072e-07	2.171627e+01	2.332363e+00
0.0741451     	WALL	1.852751e-03	1.820294e+01	3.146547e+00
0.075         	BOTTOM	5.837602e-07	2.182939e+01	2.346138e+00
0.075         	WALL	1.631240e-03	1.807056e+01	3.158089e+00
0.0757184     	BOTTOM	4.074773e-07	2.194326e+01	2.358988e+00
0.0757184     	WALL	1.489011e-03	1.795816e+01	3.167114e+00
0.0764368     	BOTTOM	2.660202e-07	2.205687e+01	2.372016e+00
0.0764368     	WALL	1.300139e-03	1.784525e+01	3.176857e+00
0.0771594     	BOTTOM	6.464631e-07	2.217001e+01	2.384969e+00
0.0771594     	WALL	1.237195e-03	1.772900e+01	3.184472e+00
0.077882      	BOTTOM	6.661572e-07	2.228259e+01	2.397891e+00
0.077882      	WALL	1.252820e-03	1.761257e+01	3.191542e+00
0.0786089     	BOTTOM	5.234900e-07	2.239463e+01	2.410781e+00
0.0786089     	WALL	1.262911e-03	1.755802e+01	3.199729e+00
0.0793358     	BOTTOM	8.147741e-07	2.250616e+01	2.423605e+00
0.0793358     	WALL	1.247623e-03	1.751193e+01	3.213535e+00
0.0800671     	BOTTOM	2.958200e-07	2.261719e+01	2.436406e+00
0.0800671     	WALL	1.259061e-03	1.746133e+01	3.225941e+00
0.0807983     	BOTTOM	3.591931e-07	2.272777e+01	2.449176e+00
0.0807983     	WALL	1.323084e-03	1.740612e+01	3.236391e+00
0.0815342     	BOTTOM	4.311679e-07	2.283790e+01	2.461989e+00
0.0815342     	WALL	1.370265e-03	1.734423e+01	3.244965e+00
0.08227       	BOTTOM	6.001614e-07	2.294764e+01	2.474781e+00
0.08227       	WALL	1.459042e-03	1.727710e+01	3.251698e+00
0.0830104     	BOTTOM	7.830193e-07	2.305698e+01	2.487602e+00
0.0830104     	WALL	1.656310e-03	1.720631e+01	3.258165e+00
0.0837509     	BOTTOM	5.967997e-07	2.316596e+01	2.500379e+00
0.0837509     	WALL	2.125131e-03	1.713459e+01	3.262917e+00
0.084496      	BOTTOM	1.205634e-06	2.327457e+01	2.513092e+00
0.084496      	WALL	2.541925e-03	1.705772e+01	3.266915e+00
0.0852412     	BOTTOM	5.457099e-07	2.338283e+01	2.525757e+00
0.0852412     	WALL	2.886279e-03	1.698068e+01	3.270046e+00
0.0859864     	BOTTOM	7.783293e-07	2.349071e+01	2.538376e+00
0.0859864     	WALL	3.144729e-03	1.690058e+01	3.272100e+00
0.0867316     	BOTTOM	1.127865e-06	2.359831e+01	2.550882e+00
0.0867316     	WALL	3.192002e-03	1.681557e+01	3.272619e+00
0.0874719     	BOTTOM	3.898542e-07	2.370560e+01	2.563259e+00
0.0874719     	WALL	3.332263e-03	1.687747e+01	3.274477e+00
0.0882074     	BOTTOM	8.014263e-07	2.381299e+01	2.575528e+00
0.0882074     	WALL	3.512417e-03	1.695948e+01	3.279702e+00
0.0889333     	BOTTOM	1.233102e-06	2.392003e+01	2.587642e+00
0.0889333     	WALL	3.638128e-03	1.704031e+01	3.283835e+00
0.0896499     	BOTTOM	8.061433e-07	2.402641e+01	2.599641e+00
0.0896499     	WALL	3.718266e-03	1.711942e+01	3.287152e+00
0.0903618     	BOTTOM	3.273620e-07	2.413209e+01	2.611581e+00
0.0903618     	WALL	3.761073e-03	1.719651e+01	3.290038e+00
0.0910692     	BOTTOM	6.181114e-07	2.423700e+01	2.623470e+00
0.0910692     	WALL	3.812167e-03	1.726943e+01	3.291697e+00
0.0917719     	BOTTOM	1.543133e-06	2.434115e+01	2.635285e+00
0.0917719     	WALL	3.882587e-03	1.734159e+01	3.291968e+00
0.0924747     	BOTTOM	1.338398e-07	2.444452e+01	2.647080e+00
0.0924747     	WALL	3.963355e-03	1.741430e+01	3.292224e+00
0.0931821     	BOTTOM	7.728680e-07	2.454720e+01	2.658836e+00
0.0931821     	WALL	4.071420e-03	1.748728e+01	3.292131e+00
0.0938895     	BOTTOM	8.702415e-07	2.464925e+01	2.670552e+00
0.0938895     	WALL	4.227226e-03	1.756016e+01	3.294174e+00
0.0945922     	BOTTOM	1.329668e-06	2.475063e+01	2.682176e+00
0.0945922     	WALL	4.378210e-03	1.763249e+01	3.296472e+00
0.0952857     	BOTTOM	4.083494e-07	2.485130e+01	2.693695e+00
0.0952857     	WALL	4.486729e-03	1.770461e+01	3.297261e+00
0.0959701     	BOTTOM	5.412654e-07	2.495121e+01	2.705110e+00
0.0959701     	WALL	4.565535e-03	1.777550e+01	3.296255e+00
0.0966501     	BOTTOM	5.806864e-07	2.505030e+01	2.716446e+00
0.0966501     	WALL	4.621996e-03	1.784577e+01	3.295202e+00
0.0973255     	BOTTOM	1.165447e-06	2.514854e+01	2.727685e+00
0.0973255     	WALL	4.733297e-03	1.791449e+01	3.292932e+00
0.0979923     	BOTTOM	3.907351e-07	2.524592e+01	2.738834e+00
0.0979923     	WALL	4.892639e-03	1.798141e+01	3.292505e+00
0.098659      	BOTTOM	4.298369e-07	2.534240e+01	2.749922e+00
0.098659      	WALL	5.024290e-03	1.804736e+01	3.292028e+00
0.0993295     	BOTTOM	1.388998e-07	2.543851e+01	2.760937e+00
0.0993295     	WALL	5.082468e-03	1.811328e+01	3.290344e+00
0.1           	BOTTOM	1.297738e-07	2.553445e+01	2.771861e+00
0.1           	WALL	5.179535e-03	1.817538e+01	3.287894e+00
0.100658      	BOTTOM	5.224198e-07	2.562965e+01	2.782707e+00
0.100658      	WALL	5.263666e-03	1.823169e+01	3.286186e+00
0.101316      	BOTTOM	8.804994e-07	2.572404e+01	2.793528e+00
0.101316      	WALL	5.312041e-03	1.828315e+01	3.282285e+00
0.101974      	BOTTOM	7.752148e-07	2.581767e+01	2.804318e+00
0.101974      	WALL	5.331397e-03	1.833075e+01	3.278633e+00
0.102627      	BOTTOM	1.057816e-06	2.591054e+01	2.815071e+00
0.102627      	WALL	5.264695e-03	1.837794e+01	3.274994e+00
0.103281      	BOTTOM	8.459301e-07	2.600267e+01	2.825769e+00
0.103281      	WALL	5.142953e-03	1.842109e+01	3.270116e+00
0.103934      	BOTTOM	5.341934e-07	2.609411e+01	2.836400e+00
0.103934      	WALL	5.004498e-03	1.846224e+01	3.262259e+00
0.104588      	BOTTOM	1.260498e-06	2.618490e+01	2.846966e+00
0.104588      	WALL	4.797242e-03	1.849573e+01	3.256200e+00
0.105241      	BOTTOM	7.632953e-07	2.627507e+01	2.857454e+00
0.105241      	WALL	4.654585e-03	1.853887e+01	3.251501e+00
0.10589       	BOTTOM	1.002525e-06	2.636463e+01	2.867837e+00
0.10589       	WALL	4.560559e-03	1.857794e+01	3.244979e+00
0.106535      	BOTTOM	2.430613e-07	2.645356e+01	2.878167e+00
0.106535      	WALL	4.502880e-03	1.861538e+01	3.238514e+00
0.107175      	BOTTOM	7.617929e-07	2.654188e+01	2.888410e+00
0.107175      	WALL	4.430109e-03	1.864792e+01	3.233221e+00
0.107815      	BOTTOM	5.061065e-07	2.662956e+01	2.898606e+00
0.107815      	WALL	4.403401e-03	1.867512e+01	3.229289e+00
0.108451      	BOTTOM	6.885212e-07	2.671662e+01	2.908753e+00
0.108451      	WALL	4.647157e-03	1.871171e+01	3.224834e+00
0.109082      	BOTTOM	7.648872e-07	2.680303e+01	2.918866e+00
0.109082      	WALL	4.876651e-03	1.875413e+01	3.218149e+00
0.109714      	BOTTOM	5.530859e-07	2.688877e+01	2.928974e+00
0.109714      	WALL	5.054596e-03	1.880820e+01	3.209363e+00
0.110345      	BOTTOM	4.690670e-07	2.697402e+01	2.939079e+00
0.110345      	WALL	5.205069e-03	1.885572e+01	3.198534e+00
0.110972      	BOTTOM	6.154114e-07	2.705949e+01	2.949137e+00
0.110972      	WALL	5.272069e-03	1.890586e+01	3.187586e+00
0.111599      	BOTTOM	3.470154e-07	2.714437e+01	2.959197e+00
0.111599      	WALL	5.323754e-03	1.895148e+01	3.176973e+00
0.11223       	BOTTOM	6.169988e-07	2.722869e+01	2.969241e+00
0.11223       	WALL	5.383528e-03	1.899945e+01	3.163966e+00
0.112862      	BOTTOM	1.749340e-07	2.731249e+01	2.979231e+00
0.112862      	WALL	5.500325e-03	1.904509e+01	3.152899e+00
0.113493      	BOTTOM	2.838349e-07	2.739579e+01	2.989162e+00
0.113493      	WALL	5.671367e-03	1.909165e+01	3.143113e+00
0.114125      	BOTTOM	3.783881e-07	2.747863e+01	2.999065e+00
0.114125      	WALL	5.843649e-03	1.913700e+01	3.138032e+00
0.114752      	BOTTOM	5.283763e-07	2.756101e+01	3.008910e+00
0.114752      	WALL	5.975050e-03	1.917722e+01	3.132735e+00
0.115374      	BOTTOM	6.004726e-07	2.764290e+01	3.018718e+00
0.115374      	WALL	6.100517e-03	1.922074e+01	3.132637e+00
0.115996      	BOTTOM	1.807871e-07	2.772428e+01	3.028457e+00
0.115996      	WALL	6.266932e-03	1.926076e+01	3.129924e+00
0.116614      	BOTTOM	7.124405e-07	2.780517e+01	3.038140e+00
0.116614      	WALL	6.440775e-03	1.930589e+01	3.126404e+00
0.117231      	BOTTOM	3.213187e-07	2.788556e+01	3.047774e+00
0.117231      	WALL	6.636829e-03	1.934371e+01	3.121843e+00
0.117849      	BOTTOM	3.543687e-07	2.796546e+01	3.057370e+00
0.117849      	WALL	6.864255e-03	1.938984e+01	3.116128e+00
0.118467      	BOTTOM	2.117227e-07	2.804490e+01	3.066887e+00
0.118467      	WALL	7.182671e-03	1.942522e+01	3.110502e+00
0.119084      	BOTTOM	5.127842e-07	2.812389e+01	3.076391e+00
0.119084      	WALL	7.561896e-03	1.947145e+01	3.105237e+00
0.119702      	BOTTOM	7.462496e-07	2.820245e+01	3.085828e+00
0.119702      	WALL	7.815234e-03	1.950425e+01	3.099467e+00
0.12032       	BOTTOM	6.602517e-07	2.828059e+01	3.095285e+00
0.12032       	WALL	7.884968e-03	1.954942e+01	3.093203e+00
0.120942      	BOTTOM	1.073432e-06	2.835833e+01	3.104697e+00
0.120942      	WALL	7.871880e-03	1.957832e+01	3.085163e+00
0.121565      	BOTTOM	5.288461e-07	2.843572e+01	3.114126e+00
0.121565      	WALL	7.981835e-03	1.962184e+01	3.075760e+00
0.122192      	BOTTOM	8.217417e-07	2.851329e+01	3.123544e+00
0.122192      	WALL	8.282997e-03	1.964712e+01	3.064022e+00
0.12282       	BOTTOM	3.316385e-07	2.859102e+01	3.132940e+00
0.12282       	WALL	8.476821e-03	1.968794e+01	3.052592e+00
0.123447      	BOTTOM	3.778937e-07	2.866848e+01	3.142297e+00
0.123447      	WALL	8.468740e-03	1.967974e+01	3.043489e+00
0.124224      	BOTTOM	1.389770e-06	2.874603e+01	3.152539e+00
0.124224      	WALL	8.489727e-03	1.969091e+01	3.044359e+00
0.125         	BOTTOM	1.443208e-06	2.882464e+01	3.162563e+00
0.125         	WALL	8.244981e-03	1.971651e+01	3.050409e+00
0.125625      	BOTTOM	6.621935e-07	2.890369e+01	3.171955e+00
0.125625      	WALL	8.183010e-03	1.975790e+01	3.059195e+00
0.12625       	BOTTOM	5.037645e-07	2.898221e+01	3.181529e+00
0.12625       	WALL	8.263565e-03	1.977270e+01	3.064722e+00
0.126875      	BOTTOM	9.101970e-07	2.906036e+01	3.191126e+00
0.126875      	WALL	8.220950e-03	1.981153e+01	3.068685e+00
0.1275        	BOTTOM	1.128296e-06	2.913805e+01	3.200672e+00
0.1275        	WALL	8.081364e-03	1.982624e+01	3.070392e+00
0.128125      	BOTTOM	8.796850e-07	2.921532e+01	3.210240e+00
0.128125      	WALL	8.086635e-03	1.986432e+01	3.071167e+00
0.12875       	BOTTOM	3.369269e-07	2.929217e+01	3.219755e+00
0.12875       	WALL	8.259321e-03	1.988780e+01	3.072604e+00
0.129375      	BOTTOM	7.131618e-07	2.936862e+01	3.229270e+00
0.129375      	WALL	8.472296e-03	1.992424e+01	3.073137e+00
0.13          	BOTTOM	3.226623e-07	2.944465e+01	3.238743e+00
0.13          	WALL	8.677207e-03	1.994549e+01	3.071844e+00
0.130631      	BOTTOM	6.895134e-07	2.952030e+01	3.248242e+00
0.130631      	WALL	8.724621e-03	1.998034e+01	3.070966e+00
0.131261      	BOTTOM	3.479895e-07	2.959562e+01	3.257645e+00
0.131261      	WALL	8.560339e-03	1.999805e+01	3.068876e+00
0.131898      	BOTTOM	4.107223e-07	2.967063e+01	3.267039e+00
0.131898      	WALL	8.391088e-03	2.003148e+01	3.065637e+00
0.13254       	BOTTOM	2.049885e-07	2.974537e+01	3.276332e+00
0.13254       	WALL	8.396281e-03	2.004949e+01	3.061412e+00
0.133183      	BOTTOM	4.480797e-07	2.981989e+01	3.285600e+00
0.133183      	WALL	8.416483e-03	2.005538e+01	3.060520e+00
0.133825      	BOTTOM	8.254705e-07	2.989418e+01	3.294788e+00
0.133825      	WALL	8.409939e-03	2.009740e+01	3.059692e+00
0.134468      	BOTTOM	4.671995e-07	2.996823e+01	3.303954e+00
0.134468      	WALL	8.364274e-03	2.011757e+01	3.057887e+00
0.13511       	BOTTOM	2.783737e-07	3.004286e+01	3.313010e+00
0.13511       	WALL	8.289817e-03	2.012205e+01	3.053198e+00
0.135753      	BOTTOM	7.521921e-07	3.011746e+01	3.322066e+00
0.135753      	WALL	8.328390e-03	2.016254e+01	3.047585e+00
0.136395      	BOTTOM	4.274629e-07	3.019185e+01	3.331042e+00
0.136395      	WALL	8.612923e-03	2.018430e+01	3.039170e+00
0.137044      	BOTTOM	2.178828e-07	3.026605e+01	3.339972e+00
0.137044      	WALL	8.763632e-03	2.019673e+01	3.040890e+00
0.137693      	BOTTOM	8.677395e-07	3.034009e+01	3.348848e+00
0.137693      	WALL	8.928155e-03	2.021368e+01	3.050640e+00
0.138342      	BOTTOM	6.650731e-07	3.041398e+01	3.357684e+00
0.138342      	WALL	9.086387e-03	2.022683e+01	3.061017e+00
0.138998      	BOTTOM	1.970512e-07	3.048771e+01	3.366428e+00
0.138998      	WALL	9.104587e-03	2.024011e+01	3.068265e+00
0.139654      	BOTTOM	5.260979e-07	3.056134e+01	3.375270e+00
0.139654      	WALL	9.017672e-03	2.025692e+01	3.074144e+00
0.140317      	BOTTOM	7.488772e-07	3.063482e+01	3.384184e+00
0.140317      	WALL	8.604695e-03	2.026442e+01	3.077679e+00
0.14098       	BOTTOM	1.909423e-07	3.070824e+01	3.393053e+00
0.14098       	WALL	8.153787e-03	2.025666e+01	3.079418e+00
0.141651      	BOTTOM	7.171073e-07	3.078158e+01	3.401974e+00
0.141651      	WALL	7.816407e-03	2.026193e+01	3.079355e+00
0.142322      	BOTTOM	1.135371e-06	3.085488e+01	3.410938e+00
0.142322      	WALL	7.718806e-03	2.031246e+01	3.078200e+00
0.142992      	BOTTOM	6.399680e-07	3.092812e+01	3.419867e+00
0.142992      	WALL	7.615153e-03	2.035409e+01	3.075521e+00
0.143663      	BOTTOM	1.204458e-06	3.100130e+01	3.428793e+00
0.143663      	WALL	7.395302e-03	2.039587e+01	3.075617e+00
0.144342      	BOTTOM	3.480266e-07	3.107440e+01	3.437764e+00
0.144342      	WALL	7.346502e-03	2.043186e+01	3.079914e+00
0.145021      	BOTTOM	1.249380e-06	3.114747e+01	3.446742e+00
0.145021      	WALL	7.412810e-03	2.046588e+01	3.082955e+00
0.145699      	BOTTOM	9.084790e-07	3.122047e+01	3.455590e+00
0.145699      	WALL	7.539679e-03	2.049459e+01	3.084372e+00
0.146387      	BOTTOM	6.059597e-07	3.129341e+01	3.464459e+00
0.146387      	WALL	7.750425e-03	2.052333e+01	3.082907e+00
0.147065      	BOTTOM	9.326915e-07	3.136632e+01	3.473183e+00
0.147065      	WALL	7.840816e-03	2.054961e+01	3.080528e+00
0.147744      	BOTTOM	9.240940e-07	3.143909e+01	3.481909e+00
0.147744      	WALL	7.851444e-03	2.057558e+01	3.080371e+00
0.148414      	BOTTOM	7.214620e-07	3.151245e+01	3.490508e+00
0.148414      	WALL	7.740742e-03	2.059964e+01	3.083446e+00
0.149207      	BOTTOM	6.739237e-07	3.158607e+01	3.499699e+00
0.149207      	WALL	7.633798e-03	2.062402e+01	3.084961e+00
0.15          	BOTTOM	1.109464e-06	3.166045e+01	3.508704e+00
0.15          	WALL	7.601025e-03	2.064459e+01	3.083553e+00
0.150649      	BOTTOM	9.572743e-07	3.173524e+01	3.517086e+00
0.150649      	WALL	7.809529e-03	2.066106e+01	3.087215e+00
0.151299      	BOTTOM	3.202739e-07	3.180957e+01	3.525591e+00
0.151299      	WALL	8.054402e-03	2.067596e+01	3.096281e+00
0.15194       	BOTTOM	1.043041e-06	3.188353e+01	3.533991e+00
0.15194       	WALL	8.215042e-03	2.069055e+01	3.106923e+00
0.15258       	BOTTOM	1.054243e-06	3.195700e+01	3.542449e+00
0.15258       	WALL	8.308108e-03	2.070449e+01	3.119877e+00
0.153213      	BOTTOM	8.484418e-07	3.203003e+01	3.550873e+00
0.153213      	WALL	8.493542e-03	2.071742e+01	3.133733e+00
0.153845      	BOTTOM	6.837867e-07	3.210256e+01	3.559354e+00
0.153845      	WALL	8.690303e-03	2.072948e+01	3.147174e+00
0.154477      	BOTTOM	9.080381e-07	3.217461e+01	3.567804e+00
0.154477      	WALL	8.785242e-03	2.074117e+01	3.159414e+00
0.155109      	BOTTOM	4.519985e-07	3.224618e+01	3.576251e+00
0.155109      	WALL	8.839205e-03	2.075215e+01	3.170748e+00
0.155742      	BOTTOM	1.323951e-06	3.231729e+01	3.584657e+00
0.155742      	WALL	8.940674e-03	2.076261e+01	3.183484e+00
0.156365      	BOTTOM	8.116354e-07	3.238798e+01	3.593005e+00
0.156365      	WALL	9.055671e-03	2.077275e+01	3.197370e+00
0.15698       	BOTTOM	5.123233e-07	3.245819e+01	3.601253e+00
0.15698       	WALL	9.053837e-03	2.078272e+01	3.209874e+00
0.157594      	BOTTOM	6.974137e-07	3.252790e+01	3.609477e+00
0.157594      	WALL	9.020097e-03	2.079247e+01	3.223145e+00
0.1582        	BOTTOM	1.102167e-06	3.259713e+01	3.617663e+00
0.1582        	WALL	8.899550e-03	2.080141e+01	3.232708e+00
0.158806      	BOTTOM	3.801015e-07	3.266582e+01	3.625889e+00
0.158806      	WALL	8.645036e-03	2.080997e+01	3.240057e+00
0.159412      	BOTTOM	5.933177e-07	3.273403e+01	3.634086e+00
0.159412      	WALL	8.204911e-03	2.081755e+01	3.245078e+00
0.160008      	BOTTOM	1.154800e-06	3.280175e+01	3.642219e+00
0.160008      	WALL	7.760628e-03	2.082422e+01	3.244987e+00
0.160605      	BOTTOM	1.311416e-06	3.286895e+01	3.650271e+00
0.160605      	WALL	7.615206e-03	2.082318e+01	3.251264e+00
0.161202      	BOTTOM	1.031422e-06	3.293565e+01	3.658266e+00
0.161202      	WALL	7.439420e-03	2.081373e+01	3.269487e+00
0.161799      	BOTTOM	5.880593e-07	3.300275e+01	3.666201e+00
0.161799      	WALL	7.254295e-03	2.081079e+01	3.285863e+00
0.162396      	BOTTOM	1.557350e-07	3.306949e+01	3.674036e+00
0.162396      	WALL	7.312461e-03	2.080781e+01	3.299403e+00
0.162993      	BOTTOM	3.073128e-07	3.313582e+01	3.681776e+00
0.162993      	WALL	7.236069e-03	2.079528e+01	3.312563e+00
0.16359       	BOTTOM	5.982730e-07	3.320175e+01	3.689418e+00
0.16359       	WALL	6.991829e-03	2.077582e+01	3.325468e+00
0.164187      	BOTTOM	7.908768e-07	3.326731e+01	3.697109e+00
0.164187      	WALL	6.400306e-03	2.080018e+01	3.337892e+00
0.164784      	BOTTOM	5.583551e-07	3.333252e+01	3.704852e+00
0.164784      	WALL	5.905309e-03	2.080964e+01	3.353154e+00
0.16538       	BOTTOM	3.132134e-07	3.339739e+01	3.712573e+00
0.16538       	WALL	5.617674e-03	2.081448e+01	3.370700e+00
0.165977      	BOTTOM	2.506231e-07	3.346195e+01	3.720275e+00
0.165977      	WALL	5.351451e-03	2.084012e+01	3.386442e+00
0.166574      	BOTTOM	5.419966e-07	3.352620e+01	3.727905e+00
0.166574      	WALL	4.366057e-03	2.080655e+01	3.400951e+00
0.167171      	BOTTOM	6.760642e-07	3.359016e+01	3.735560e+00
0.167171      	WALL	2.453853e-03	2.081586e+01	3.415772e+00
0.167768      	BOTTOM	4.311257e-07	3.365385e+01	3.743099e+00
0.167768      	WALL	3.429441e-03	2.083939e+01	3.430763e+00