Time	gauge_0	gauge_1	gauge_2	gauge_3	gauge_4	gauge_5	gauge_6	gauge_7	gauge_8	gauge_9	gauge_10	gauge_11	gauge_12	gauge_13	gauge_14	gauge_15	gauge_16	gauge_17	gauge_18	gauge_19	gauge_20	gauge_21	gauge_22	gauge_23	gauge_24	gauge_25	gauge_26	gauge_27	gauge_28	gauge_29	gauge_30	gauge_31	gauge_32	gauge_33	gauge_34	gauge_35	gauge_36	gauge_37	gauge_38	gauge_39	gauge_40	gauge_41	gauge_42	gauge_43	gauge_44	gauge_45	gauge_46	gauge_47	gauge_48	gauge_49	gauge_50	gauge_51	gauge_52	gauge_53	gauge_54	gauge_55	gauge_56	gauge_57	gauge_58	gauge_59	gauge_60	gauge_61	gauge_62	gauge_63	gauge_64	gauge_65	gauge_66	gauge_67	gauge_68	gauge_69	gauge_70	gauge_71	gauge_72	gauge_73	gauge_74	gauge_75	gauge_76	gauge_77	gauge_78	gauge_79	gauge_80	gauge_81	gauge_82	gauge_83	gauge_84	gauge_85	gauge_86	gauge_87	gauge_88	gauge_89	gauge_90	gauge_91	gauge_92	gauge_93	gauge_94	gauge_95	gauge_96	gauge_97	gauge_98	gauge_99	gauge_100	gauge_101	gauge_102	gauge_103	gauge_104	gauge_105	gauge_106	gauge_107	gauge_108	gauge_109	gauge_110	gauge_111	gauge_112	gauge_113	gauge_114	gauge_115	gauge_116	gauge_117	gauge_118	gauge_119	gauge_120	gauge_121	gauge_122	gauge_123	gauge_124	gauge_125	gauge_126	gauge_127	gauge_128	gauge_129	gauge_130	gauge_131	gauge_132	gauge_133	gauge_134	gauge_135	gauge_136	gauge_137	gauge_138	gauge_139	gauge_140	gauge_141	gauge_142	gauge_143	gauge_144	gauge_145	gauge_146	gauge_147	gauge_148	gauge_149	gauge_150	gauge_151	gauge_152	gauge_153	gauge_154	gauge_155	gauge_156	gauge_157	gauge_158	gauge_159	gauge_160	gauge_161	gauge_162	gauge_163	gauge_164	gauge_165	gauge_166	gauge_167	gauge_168	gauge_169	gauge_170	gauge_171	gauge_172	gauge_173	gauge_174	gauge_175	gauge_176	gauge_177	gauge_178
-1	0.1	0.2	0.3	0.4	0.5	0.6	0.7	0.8	0.9	1	1.1	1.2	1.3	1.4	1.5	1.6	1.7	1.8	1.9	2	2.1	2.2	2.3	2.4	2.5	2.6	2.7	2.8	2.9	3	3.1	3.2	3.3	3.4	3.5	3.6	3.7	3.8	3.9	4	4.1	4.2	4.3	4.4	4.5	4.6	4.7	4.8	4.9	5	5.1	5.2	5.3	5.4	5.5	5.6	5.7	5.8	5.9	6	6.1	6.2	6.3	6.4	6.5	6.6	6.7	6.8	6.9	7	7.1	7.2	7.3	7.4	7.5	7.6	7.7	7.8	7.9	8	8.1	8.2	8.3	8.4	8.5	8.6	8.7	8.8	8.9	9	9.1	9.2	9.3	9.4	9.5	9.6	9.7	9.8	9.9	10	10.1	10.2	10.3	10.4	10.5	10.6	10.7	10.8	10.9	11	11.1	11.2	11.3	11.4	11.5	11.6	11.7	11.8	11.9	12	12.1	12.2	12.3	12.4	12.5	12.6	12.7	12.8	12.9	13	13.1	13.2	13.3	13.4	13.5	13.6	13.7	13.8	13.9	14	14.1	14.2	14.3	14.4	14.5	14.6	14.7	14.8	14.9	15	15.1	15.2	15.3	15.4	15.5	15.6	15.7	15.8	15.9	16	16.1	16.2	16.3	16.4	16.5	16.6	16.7	16.8	16.9	17	17.1	17.2	17.3	17.4	17.5	17.6	17.7	17.8	17.9
-2	0	0	0	0	0	0	0	0	0	0	0	0	0	0	0	0	0	0	0	0	0	0	0	0	0	0	0	0	0	0	0	0	0	0	0	0	0	0	0	0	0	0	0	0	0	0	0	0	0	0	0	0	0	0	0	0	0	0	0	0	0	0	0	0	0	0	0	0	0	0	0	0	0	0	0	0	0	0	0	0	0	0	0	0	0	0	0	0	0	0	0	0	0	0	0	0	0	0	0	0	0	0	0	0	0	0	0	0	0	0	0	0	0	0	0	0	0	0	0	0	0	0	0	0	0	0	0	0	0	0	0	0	0	0	0	0	0	0	0	0	0	0	0	0	0	0	0	0	0	0	0	0	0	0	0	0	0	0	0	0	0	0	0	0	0	0	0	0	0	0	0	0	0	0	0	0	0	0	0
-3	0.05	0.05	0.05	0.05	0.05	0.05	0.05	0.05	0.05	0.05	0.05	0.05	0.05	0.05	0.05	0.05	0.05	0.05	0.05	0.05	0.05	0.05	0.05	0.05	0.05	0.05	0.05	0.05	0.05	0.05	0.05	0.05	0.05	0.05	0.05	0.05	0.05	0.05	0.05	0.05	0.05	0.05	0.05	0.05	0.05	0.05	0.05	0.05	0.05	0.05	0.05	0.05	0.05	0.05	0.05	0.05	0.05	0.05	0.05	0.05	0.05	0.05	0.05	0.05	0.05	0.05	0.05	0.05	0.05	0.05	0.05	0.05	0.05	0.05	0.05	0.05	0.05	0.05	0.05	0.05	0.05	0.05	0.05	0.05	0.05	0.05	0.05	0.05	0.05	0.05	0.05	0.05	0.05	0.05	0.05	0.05	0.05	0.05	0.05	0.05	0.05	0.05	0.05	0.05	0.05	0.05	0.05	0.05	0.05	0.05	0.05	0.05	0.05	0.05	0.05	0.05	0.05	0.05	0.05	0.05	0.05	0.05	0.05	0.05	0.05	0.05	0.05	0.05	0.05	0.05	0.05	0.05	0.05	0.05	0.05	0.05	0.05	0.05	0.05	0.05	0.05	0.05	0.05	0.05	0.05	0.05	0.05	0.05	0.05	0.05	0.05	0.05	0.05	0.05	0.05	0.05	0.05	0.05	0.05	0.05	0.05	0.05	0.05	0.05	0.05	0.05	0.05	0.05	0.05	0.05	0.05	0.05	0.05	0.05	0.05	0.05	0.05	0.05	0.05
2.025	-1e+15	-1e+15	-1e+15	-1e+15	-1e+15	-1e+15	-1e+15	-1e+15	-1e+15	-1e+15	-1e+15	-1e+15	-1e+15	-1e+15	-1e+15	-1e+15	-1e+15	-1e+15	-1e+15	-1e+15	-1e+15	-1e+15	-1e+15	-1e+15	-1e+15	-1e+15	-1e+15	-1e+15	-1e+15	-1e+15	-1e+15	-1e+15	-1e+15	-1e+15	-1e+15	-1e+15	-1e+15	-1e+15	-1e+15	-1e+15	-1e+15	-1e+15	-1e+15	-1e+15	-1e+15	-1e+15	-1e+15	-1e+15	-1e+15	-1e+15	-1e+15	-1e+15	-1e+15	-1e+15	-1e+15	-1e+15	-1e+15	-1e+15	-1e+15	-1e+15	-1e+15	-1e+15	-1e+15	-1e+15	-1e+15	-1e+15	-1e+15	-1e+15	-1e+15	-1e+15	-1e+15	-1e+15	-1e+15	-1e+15	-1e+15	-1e+15	-1e+15	-1e+15	-1e+15	-1e+15	-1e+15	-1e+15	-1e+15	-1e+15	-1e+15	-1e+15	-1e+15	-1e+15	-1e+15	-1e+15	-1e+15	-1e+15	-1e+15	-1e+15	-1e+15	-1e+15	-1e+15	-1e+15	-1e+15	-1e+15	-1e+15	-1e+15	-1e+15	-1e+15	-1e+15	-1e+15	-1e+15	-1e+15	-1e+15	-1e+15	-1e+15	-1e+15	-1e+15	-1e+15	-1e+15	-1e+15	-1e+15	-1e+15	-1e+15	-1e+15	-1e+15	-1e+15	-1e+15	-1e+15	-1e+15	-1e+15	-1e+15	-1e+15	-1e+15	-1e+15	-1e+15	-1e+15	-1e+15	-1e+15	-1e+15	-1e+15	-1e+15	-1e+15	-1e+15	-1e+15	-1e+15	-1e+15	-1e+15	-1e+15	-1e+15	-1e+15	-1e+15	-1e+15	-1e+15	-1e+15	-1e+15	-1e+15	-1e+15	-1e+15	-1e+15	-1e+15	-1e+15	-1e+15	-1e+15	-1e+15	-1e+15	-1e+15	-1e+15	-1e+15	-1e+15	-1e+15	-1e+15	-1e+15	-1e+15	-1e+15	-1e+15	-1e+15	-1e+15	-1e+15	-1e+15	-1e+15	-1e+15	-1e+15	-1e+15
2.05	-1e+15	-1e+15	-1e+15	-1e+15	-1e+15	-1e+15	-1e+15	-1e+15	-1e+15	-1e+15	-1e+15	-1e+15	-1e+15	-1e+15	-1e+15	-1e+15	-1e+15	-1e+15	-1e+15	-1e+15	-1e+15	-1e+15	-1e+15	-1e+15	-1e+15	-1e+15	-1e+15	-1e+15	-1e+15	-1e+15	-1e+15	-1e+15	-1e+15	-1e+15	-1e+15	-1e+15	-1e+15	-1e+15	-1e+15	-1e+15	-1e+15	-1e+15	-1e+15	-1e+15	-1e+15	-1e+15	-1e+15	-1e+15	-1e+15	-1e+15	-1e+15	-1e+15	-1e+15	-1e+15	-1e+15	-1e+15	-1e+15	-1e+15	-1e+15	-1e+15	-1e+15	-1e+15	-1e+15	-1e+15	-1e+15	-1e+15	-1e+15	-1e+15	-1e+15	-1e+15	-1e+15	-1e+15	-1e+15	-1e+15	-1e+15	-1e+15	-1e+15	-1e+15	-1e+15	-1e+15	-1e+15	-1e+15	-1e+15	-1e+15	-1e+15	-1e+15	-1e+15	-1e+15	-1e+15	-1e+15	-1e+15	-1e+15	-1e+15	-1e+15	-1e+15	-1e+15	-1e+15	-1e+15	-1e+15	-1e+15	-1e+15	-1e+15	-1e+15	-1e+15	-1e+15	-1e+15	-1e+15	-1e+15	-1e+15	-1e+15	-1e+15	-1e+15	-1e+15	-1e+15	-1e+15	-1e+15	-1e+15	-1e+15	-1e+15	-1e+15	-1e+15	-1e+15	-1e+15	-1e+15	-1e+15	-1e+15	-1e+15	-1e+15	-1e+15	-1e+15	-1e+15	-1e+15	-1e+15	-1e+15	-1e+15	-1e+15	-1e+15	-1e+15	-1e+15	-1e+15	-1e+15	-1e+15	-1e+15	-1e+15	-1e+15	-1e+15	-1e+15	-1e+15	-1e+15	-1e+15	-1e+15	-1e+15	-1e+15	-1e+15	-1e+15	-1e+15	-1e+15	-1e+15	-1e+15	-1e+15	-1e+15	-1e+15	-1e+15	-1e+15	-1e+15	-1e+15	-1e+15	-1e+15	-1e+15	-1e+15	-1e+15	-1e+15	-1e+15	-1e+15	-1e+15	-1e+15	-1e+15	-1e+15	-1e+15
