# Force       
# CofR        : (0.000000e+00 0.000000e+00 0.000000e+00)
#
# Time        	total_x total_y total_z	pressure_x pressure_y pressure_z	viscous_x viscous_y viscous_z
0.00298507     -8.109950e-03 4.810741e-01 -1.473584e-24 -8.110130e-03 4.782198e-01 0.000000e+00 1.792522e-07 2.854259e-03 -1.473584e-24
0.0043438      2.082079e-02 -3.854425e-01 -2.057947e-24 2.082099e-02 -3.889979e-01 0.000000e+00 -2.067273e-07 3.555411e-03 -2.057947e-24
0.00555905     8.338773e-03 -2.591471e-01 -2.277094e-24 8.339024e-03 -2.632902e-01 0.000000e+00 -2.506846e-07 4.143034e-03 -2.277094e-24
0.00671644     4.200075e-03 -1.733996e-01 -2.412039e-24 4.200154e-03 -1.780639e-01 0.000000e+00 -7.875434e-08 4.664340e-03 -2.412039e-24
0.00777844     2.549552e-03 -2.085922e-01 -2.469873e-24 2.549495e-03 -2.137316e-01 0.000000e+00 5.729664e-08 5.139348e-03 -2.469873e-24
0.00875916     2.256795e-03 -2.279136e-01 -2.532173e-24 2.256586e-03 -2.335094e-01 0.000000e+00 2.097562e-07 5.595750e-03 -2.532173e-24
0.00968751     2.890310e-03 -2.000617e-01 -2.599963e-24 2.889972e-03 -2.061105e-01 0.000000e+00 3.380986e-07 6.048744e-03 -2.599963e-24
0.0105727      2.581399e-03 -1.752049e-01 -2.709956e-24 2.580880e-03 -1.817012e-01 0.000000e+00 5.189494e-07 6.496367e-03 -2.709956e-24
0.0114221      3.126778e-03 -1.030691e-01 -2.855623e-24 3.126043e-03 -1.100046e-01 0.000000e+00 7.345501e-07 6.935467e-03 -2.855623e-24
0.0122456      3.061871e-03 -6.340358e-02 -3.019245e-24 3.060926e-03 -7.076892e-02 0.000000e+00 9.450480e-07 7.365339e-03 -3.019245e-24
0.0130446      3.017382e-03 -3.374874e-02 -3.201189e-24 3.016172e-03 -4.154810e-02 0.000000e+00 1.209394e-06 7.799366e-03 -3.201189e-24
0.0138236      3.690513e-03 3.390252e-02 -3.415049e-24 3.689183e-03 2.574419e-02 0.000000e+00 1.329846e-06 8.158332e-03 -3.415049e-24
0.0145897      4.410775e-03 9.776612e-02 -3.688972e-24 4.409371e-03 8.942402e-02 0.000000e+00 1.403857e-06 8.342099e-03 -3.688972e-24
0.0153343      5.059218e-03 9.767667e-02 -3.977688e-24 5.057755e-03 8.917240e-02 0.000000e+00 1.463053e-06 8.504273e-03 -3.977688e-24
0.0160557      5.430375e-03 1.281572e-01 -4.301097e-24 5.428800e-03 1.194750e-01 0.000000e+00 1.575457e-06 8.682172e-03 -4.301097e-24
0.0167578      4.835578e-03 1.682293e-01 -4.656000e-24 4.833825e-03 1.593674e-01 0.000000e+00 1.753695e-06 8.861815e-03 -4.656000e-24
0.0174441      3.867245e-03 2.124319e-01 -5.019473e-24 3.865326e-03 2.033987e-01 0.000000e+00 1.919070e-06 9.033160e-03 -5.019473e-24
0.0181152      5.536082e-03 2.112645e-01 -5.373561e-24 5.534010e-03 2.020680e-01 0.000000e+00 2.072174e-06 9.196503e-03 -5.373561e-24
0.0187742      5.513030e-03 2.344274e-01 -5.738877e-24 5.510791e-03 2.250672e-01 0.000000e+00 2.239750e-06 9.360154e-03 -5.738877e-24
0.0194238      5.262975e-03 2.499631e-01 -6.112523e-24 5.260581e-03 2.404446e-01 0.000000e+00 2.393095e-06 9.518482e-03 -6.112523e-24
0.0200641      5.525458e-03 2.825396e-01 -6.485696e-24 5.522856e-03 2.728968e-01 0.000000e+00 2.602469e-06 9.642771e-03 -6.485696e-24
0.0206977      5.224894e-03 3.016439e-01 -6.861633e-24 5.222071e-03 2.918973e-01 0.000000e+00 2.822918e-06 9.746526e-03 -6.861633e-24
0.0213246      5.202445e-03 3.372288e-01 -7.232675e-24 5.199403e-03 3.273901e-01 0.000000e+00 3.042104e-06 9.838720e-03 -7.232675e-24
0.0219472      6.166589e-03 3.738108e-01 -7.599029e-24 6.163241e-03 3.638877e-01 0.000000e+00 3.348143e-06 9.923095e-03 -7.599029e-24
0.0225654      5.899574e-03 3.973479e-01 -7.952061e-24 5.895954e-03 3.873408e-01 0.000000e+00 3.620156e-06 1.000713e-02 -7.952061e-24
0.0231815      6.404921e-03 4.085911e-01 -8.297142e-24 6.400920e-03 3.984985e-01 0.000000e+00 4.000544e-06 1.009253e-02 -8.297142e-24
0.0237877      7.268358e-03 4.178246e-01 -8.629002e-24 7.263935e-03 4.076459e-01 0.000000e+00 4.423157e-06 1.017871e-02 -8.629002e-24
0.0243938      8.605168e-03 4.311586e-01 -8.950192e-24 8.600381e-03 4.208906e-01 0.000000e+00 4.787129e-06 1.026806e-02 -8.950192e-24
0.025          8.239942e-03 4.371301e-01 -9.263334e-24 8.234826e-03 4.267681e-01 0.000000e+00 5.116245e-06 1.036203e-02 -9.263334e-24
0.025614       7.909472e-03 4.299580e-01 -9.574911e-24 7.904198e-03 4.194956e-01 0.000000e+00 5.274208e-06 1.046241e-02 -9.574911e-24
0.0262238      8.889487e-03 4.264565e-01 -9.876192e-24 8.884198e-03 4.158934e-01 0.000000e+00 5.288211e-06 1.056306e-02 -9.876192e-24
0.0268293      9.826465e-03 4.129470e-01 -1.017103e-23 9.820902e-03 4.023009e-01 0.000000e+00 5.563095e-06 1.064610e-02 -1.017103e-23
0.0274306      9.700534e-03 4.162336e-01 -1.044404e-23 9.694371e-03 4.055056e-01 0.000000e+00 6.163527e-06 1.072802e-02 -1.044404e-23
0.0280256      9.032846e-03 4.135927e-01 -1.069423e-23 9.026016e-03 4.027826e-01 0.000000e+00 6.829904e-06 1.081003e-02 -1.069423e-23
0.0286146      7.566199e-03 4.112520e-01 -1.092139e-23 7.558715e-03 4.003591e-01 0.000000e+00 7.483623e-06 1.089293e-02 -1.092139e-23
0.0292015      7.783421e-03 4.313517e-01 -1.112320e-23 7.775326e-03 4.203754e-01 0.000000e+00 8.095489e-06 1.097628e-02 -1.112320e-23
0.0297864      8.905944e-03 4.301074e-01 -1.129464e-23 8.897216e-03 4.190479e-01 0.000000e+00 8.728227e-06 1.105945e-02 -1.129464e-23
0.0303714      8.626339e-03 4.289351e-01 -1.143419e-23 8.616995e-03 4.177889e-01 0.000000e+00 9.343999e-06 1.114625e-02 -1.143419e-23
0.0309543      8.231373e-03 4.442612e-01 -1.154766e-23 8.221469e-03 4.330302e-01 0.000000e+00 9.903479e-06 1.123095e-02 -1.154766e-23
0.0315372      8.137825e-03 4.613746e-01 -1.162595e-23 8.127378e-03 4.500636e-01 0.000000e+00 1.044730e-05 1.131105e-02 -1.162595e-23
0.0321221      8.265544e-03 4.874086e-01 -1.167951e-23 8.254957e-03 4.760178e-01 0.000000e+00 1.058701e-05 1.139080e-02 -1.167951e-23
0.0327071      7.469099e-03 4.935594e-01 -1.170307e-23 7.458425e-03 4.820891e-01 0.000000e+00 1.067375e-05 1.147027e-02 -1.170307e-23
0.033292       6.805281e-03 5.012625e-01 -1.170635e-23 6.794609e-03 4.897151e-01 0.000000e+00 1.067134e-05 1.154734e-02 -1.170635e-23
0.033877       6.729770e-03 4.988112e-01 -1.167813e-23 6.719008e-03 4.871881e-01 0.000000e+00 1.076173e-05 1.162305e-02 -1.167813e-23
0.034464       8.040494e-03 5.067867e-01 -1.162954e-23 8.029497e-03 4.950879e-01 0.000000e+00 1.099645e-05 1.169880e-02 -1.162954e-23
0.0350531      8.844049e-03 5.043662e-01 -1.154840e-23 8.832889e-03 4.925855e-01 0.000000e+00 1.115983e-05 1.178076e-02 -1.154840e-23
0.0356443      6.961311e-03 5.297286e-01 -1.144943e-23 6.950120e-03 5.178559e-01 0.000000e+00 1.119113e-05 1.187271e-02 -1.144943e-23
0.0362376      4.541582e-03 5.041503e-01 -1.132346e-23 4.530518e-03 4.921815e-01 0.000000e+00 1.106420e-05 1.196883e-02 -1.132346e-23
0.0368246      7.302117e-04 5.020337e-01 -1.118661e-23 7.193991e-04 4.899711e-01 0.000000e+00 1.081260e-05 1.206261e-02 -1.118661e-23
0.0374073      -4.654823e-04 4.817953e-01 -1.103505e-23 -4.759852e-04 4.696420e-01 0.000000e+00 1.050292e-05 1.215335e-02 -1.103505e-23
0.037986       1.300170e-04 4.799247e-01 -1.087647e-23 1.197601e-04 4.676808e-01 0.000000e+00 1.025694e-05 1.224383e-02 -1.087647e-23
0.0385625      2.136278e-03 4.926849e-01 -1.070610e-23 2.126358e-03 4.803535e-01 0.000000e+00 9.920779e-06 1.233136e-02 -1.070610e-23
0.039137       3.575387e-03 4.762401e-01 -1.052733e-23 3.565756e-03 4.638226e-01 0.000000e+00 9.631241e-06 1.241743e-02 -1.052733e-23
0.0397115      2.593535e-03 4.496193e-01 -1.033593e-23 2.584213e-03 4.371163e-01 0.000000e+00 9.321709e-06 1.250299e-02 -1.033593e-23
0.0402861      2.475329e-03 4.252239e-01 -1.013638e-23 2.466332e-03 4.126372e-01 0.000000e+00 8.997487e-06 1.258673e-02 -1.013638e-23
0.0408626      2.681783e-03 4.350418e-01 -9.922421e-24 2.673072e-03 4.223732e-01 0.000000e+00 8.710952e-06 1.266868e-02 -9.922421e-24
0.0414413      1.514166e-03 4.778822e-01 -9.695013e-24 1.505776e-03 4.651319e-01 0.000000e+00 8.389614e-06 1.275030e-02 -9.695013e-24
0.0420221      -1.016696e-03 4.734325e-01 -9.457053e-24 -1.024690e-03 4.605990e-01 0.000000e+00 7.993483e-06 1.283343e-02 -9.457053e-24
0.0426072      -1.548867e-03 4.556317e-01 -9.210207e-24 -1.556579e-03 4.427127e-01 0.000000e+00 7.711901e-06 1.291902e-02 -9.210207e-24
0.0431945      -1.091144e-03 4.514643e-01 -8.952680e-24 -1.098044e-03 4.384600e-01 0.000000e+00 6.899979e-06 1.300429e-02 -8.952680e-24
0.0437862      6.419511e-04 4.813595e-01 -8.688985e-24 6.354897e-04 4.682726e-01 0.000000e+00 6.461413e-06 1.308690e-02 -8.688985e-24
0.0443802      -1.251328e-03 5.161934e-01 -8.416504e-24 -1.257518e-03 5.030217e-01 0.000000e+00 6.190308e-06 1.317174e-02 -8.416504e-24
0.0449787      -8.034944e-04 5.378914e-01 -8.134853e-24 -8.094366e-04 5.246291e-01 0.000000e+00 5.942230e-06 1.326227e-02 -8.134853e-24
0.0455796      -2.037110e-03 5.156276e-01 -7.844451e-24 -2.042683e-03 5.022751e-01 0.000000e+00 5.573142e-06 1.335242e-02 -7.844451e-24
0.0461828      -7.981467e-03 4.864064e-01 -7.549022e-24 -7.986346e-03 4.729721e-01 0.000000e+00 4.878534e-06 1.343425e-02 -7.549022e-24
0.0467884      -5.368540e-03 5.093229e-01 -7.248390e-24 -5.372860e-03 4.958132e-01 0.000000e+00 4.319748e-06 1.350971e-02 -7.248390e-24
0.0473964      -1.808741e-03 5.194416e-01 -6.946469e-24 -1.812761e-03 5.058636e-01 0.000000e+00 4.020113e-06 1.357804e-02 -6.946469e-24
0.0480068      4.058244e-04 5.578375e-01 -6.642257e-24 4.019447e-04 5.441955e-01 0.000000e+00 3.879787e-06 1.364197e-02 -6.642257e-24
0.0486197      1.692688e-03 5.839548e-01 -6.341104e-24 1.688777e-03 5.702569e-01 0.000000e+00 3.910992e-06 1.369793e-02 -6.341104e-24
0.0493098      -3.296312e-04 5.594979e-01 -6.007642e-24 -3.332526e-04 5.457390e-01 0.000000e+00 3.621387e-06 1.375898e-02 -6.007642e-24
0.05           -2.977700e-03 5.341432e-01 -5.687820e-24 -2.980716e-03 5.203300e-01 0.000000e+00 3.015538e-06 1.381323e-02 -5.687820e-24
0.0506198      -2.854404e-03 5.349625e-01 -5.411489e-24 -2.856875e-03 5.211000e-01 0.000000e+00 2.470734e-06 1.386246e-02 -5.411489e-24
0.0512423      -1.456401e-03 5.332917e-01 -5.146776e-24 -1.458663e-03 5.193885e-01 0.000000e+00 2.262423e-06 1.390312e-02 -5.146776e-24
0.0518673      4.430351e-03 5.529277e-01 -4.893337e-24 4.427999e-03 5.389947e-01 0.000000e+00 2.351188e-06 1.393304e-02 -4.893337e-24
0.052495       2.158282e-03 5.532280e-01 -4.657525e-24 2.156041e-03 5.392655e-01 0.000000e+00 2.240610e-06 1.396247e-02 -4.657525e-24
0.0531253      -5.307251e-04 5.705449e-01 -4.440772e-24 -5.325129e-04 5.565530e-01 0.000000e+00 1.787744e-06 1.399192e-02 -4.440772e-24
0.0537584      -3.387845e-03 5.793980e-01 -4.245560e-24 -3.389000e-03 5.653769e-01 0.000000e+00 1.155718e-06 1.402114e-02 -4.245560e-24
0.0543915      -2.164610e-03 5.789472e-01 -4.075017e-24 -2.165242e-03 5.649004e-01 0.000000e+00 6.318811e-07 1.404682e-02 -4.075017e-24
0.0550273      -1.172526e-03 6.032852e-01 -3.927679e-24 -1.172811e-03 5.892172e-01 0.000000e+00 2.850296e-07 1.406797e-02 -3.927679e-24
0.055666       -2.719757e-03 6.000662e-01 -3.803122e-24 -2.719461e-03 5.859823e-01 0.000000e+00 -2.961217e-07 1.408397e-02 -3.803122e-24
0.0563046      5.177952e-04 6.301123e-01 -3.701235e-24 5.185512e-04 6.160171e-01 0.000000e+00 -7.559905e-07 1.409514e-02 -3.701235e-24
0.0569461      -8.296206e-04 6.261861e-01 -3.628505e-24 -8.282893e-04 6.120813e-01 0.000000e+00 -1.331299e-06 1.410479e-02 -3.628505e-24
0.0575905      1.815730e-03 6.143584e-01 -3.645238e-24 1.817458e-03 6.002458e-01 0.000000e+00 -1.728054e-06 1.411258e-02 -3.645238e-24
0.0582349      3.346119e-03 6.011466e-01 -3.730807e-24 3.347732e-03 5.870285e-01 0.000000e+00 -1.613595e-06 1.411816e-02 -3.730807e-24
0.0588822      4.043891e-03 5.878846e-01 -3.855063e-24 4.045704e-03 5.737599e-01 0.000000e+00 -1.813211e-06 1.412478e-02 -3.855063e-24
0.0595325      3.310164e-03 5.926065e-01 -4.023244e-24 3.312286e-03 5.784748e-01 0.000000e+00 -2.121691e-06 1.413175e-02 -4.023244e-24
0.0601859      -7.234969e-04 5.769638e-01 -4.231908e-24 -7.208581e-04 5.628240e-01 0.000000e+00 -2.638779e-06 1.413974e-02 -4.231908e-24
0.0608423      7.521421e-04 5.996923e-01 -4.441341e-24 7.549712e-04 5.855488e-01 0.000000e+00 -2.829119e-06 1.414355e-02 -4.441341e-24
0.0615049      -4.311126e-05 5.899577e-01 -4.652066e-24 -4.009432e-05 5.758137e-01 0.000000e+00 -3.016941e-06 1.414399e-02 -4.652066e-24
0.0621708      3.179554e-03 5.814597e-01 -4.863781e-24 3.182642e-03 5.673196e-01 0.000000e+00 -3.088072e-06 1.414004e-02 -4.863781e-24
0.0628399      1.879603e-03 5.662305e-01 -5.072310e-24 1.882856e-03 5.520987e-01 0.000000e+00 -3.253162e-06 1.413179e-02 -5.072310e-24
0.0635155      3.681445e-04 5.468578e-01 -5.258380e-24 3.716521e-04 5.327378e-01 0.000000e+00 -3.507644e-06 1.412008e-02 -5.258380e-24
0.0641945      2.284020e-04 5.357938e-01 -5.455378e-24 2.322948e-04 5.216880e-01 0.000000e+00 -3.892794e-06 1.410582e-02 -5.455378e-24
0.064877       3.719016e-03 5.355609e-01 -5.660344e-24 3.723373e-03 5.214717e-01 0.000000e+00 -4.357175e-06 1.408924e-02 -5.660344e-24
0.0655629      5.910927e-04 5.177068e-01 -5.871489e-24 5.959027e-04 5.036373e-01 0.000000e+00 -4.810036e-06 1.406948e-02 -5.871489e-24
0.0662523      2.433613e-04 5.094080e-01 -6.086622e-24 2.486826e-04 4.953614e-01 0.000000e+00 -5.321310e-06 1.404655e-02 -6.086622e-24
0.0669453      1.883472e-03 5.199201e-01 -6.305592e-24 1.889098e-03 5.058991e-01 0.000000e+00 -5.626552e-06 1.402092e-02 -6.305592e-24
0.0676419      1.343555e-03 5.406677e-01 -6.527338e-24 1.349458e-03 5.266785e-01 0.000000e+00 -5.903768e-06 1.398920e-02 -6.527338e-24
0.0683422      2.010523e-03 5.480972e-01 -6.753302e-24 2.016695e-03 5.341455e-01 0.000000e+00 -6.172147e-06 1.395166e-02 -6.753302e-24
0.0690425      3.614641e-03 5.502954e-01 -6.980754e-24 3.621070e-03 5.363854e-01 0.000000e+00 -6.429121e-06 1.391007e-02 -6.980754e-24
0.0697466      2.062950e-03 5.408001e-01 -7.212733e-24 2.069757e-03 5.269367e-01 0.000000e+00 -6.806477e-06 1.386332e-02 -7.212733e-24
0.0704507      1.527047e-03 5.470562e-01 -7.450593e-24 1.534172e-03 5.332476e-01 0.000000e+00 -7.125101e-06 1.380854e-02 -7.450593e-24
0.0711586      1.173823e-03 5.534169e-01 -7.692891e-24 1.181224e-03 5.396716e-01 0.000000e+00 -7.401034e-06 1.374534e-02 -7.692891e-24
0.0718665      3.261457e-03 5.438111e-01 -7.935794e-24 3.269072e-03 5.301377e-01 0.000000e+00 -7.614655e-06 1.367340e-02 -7.935794e-24
0.0725784      3.612860e-03 5.402501e-01 -8.181798e-24 3.620750e-03 5.266558e-01 0.000000e+00 -7.890104e-06 1.359437e-02 -8.181798e-24
0.0732902      6.875483e-03 5.384318e-01 -8.427788e-24 6.883530e-03 5.249221e-01 0.000000e+00 -8.046172e-06 1.350965e-02 -8.427788e-24
0.0741451      1.022785e-02 5.339029e-01 -8.727526e-24 1.023594e-02 5.205069e-01 0.000000e+00 -8.091810e-06 1.339601e-02 -8.727526e-24
0.075          1.031640e-02 5.460982e-01 -9.030380e-24 1.032441e-02 5.328291e-01 0.000000e+00 -8.009895e-06 1.326909e-02 -9.030380e-24
0.0757184      8.162379e-03 5.273279e-01 -9.279297e-24 8.170526e-03 5.141591e-01 0.000000e+00 -8.146701e-06 1.316880e-02 -9.279297e-24
0.0764368      6.484984e-03 5.129896e-01 -9.535509e-24 6.493373e-03 4.999199e-01 0.000000e+00 -8.388690e-06 1.306970e-02 -9.535509e-24
0.0771594      1.253708e-03 5.103980e-01 -9.785706e-24 1.262561e-03 4.974413e-01 0.000000e+00 -8.853440e-06 1.295672e-02 -9.785706e-24
0.077882       -4.472161e-03 5.008910e-01 -1.003077e-23 -4.462689e-03 4.880556e-01 0.000000e+00 -9.472059e-06 1.283538e-02 -1.003077e-23
0.0786089      -6.628826e-03 4.899316e-01 -1.027422e-23 -6.618728e-03 4.772238e-01 0.000000e+00 -1.009802e-05 1.270786e-02 -1.027422e-23
0.0793358      -7.739588e-03 4.868986e-01 -1.050668e-23 -7.728604e-03 4.743249e-01 0.000000e+00 -1.098344e-05 1.257368e-02 -1.050668e-23
0.0800671      -5.806935e-03 4.791982e-01 -1.073763e-23 -5.795696e-03 4.667631e-01 0.000000e+00 -1.123885e-05 1.243509e-02 -1.073763e-23
0.0807983      -8.403532e-03 4.921789e-01 -1.095189e-23 -8.392573e-03 4.798861e-01 0.000000e+00 -1.095859e-05 1.229273e-02 -1.095189e-23
0.0815342      -1.210520e-02 5.117611e-01 -1.115225e-23 -1.209379e-02 4.996144e-01 0.000000e+00 -1.140642e-05 1.214679e-02 -1.115225e-23
0.08227        -1.342734e-02 5.333209e-01 -1.133606e-23 -1.341517e-02 5.213238e-01 0.000000e+00 -1.217576e-05 1.199717e-02 -1.133606e-23
0.0830104      -8.504099e-03 5.560075e-01 -1.149923e-23 -8.491313e-03 5.441659e-01 0.000000e+00 -1.278593e-05 1.184164e-02 -1.149923e-23
0.0837509      -1.776277e-03 5.633026e-01 -1.165090e-23 -1.763356e-03 5.516206e-01 0.000000e+00 -1.292137e-05 1.168199e-02 -1.165090e-23
0.084496       2.520925e-03 5.237860e-01 -1.180225e-23 2.533760e-03 5.122687e-01 0.000000e+00 -1.283454e-05 1.151730e-02 -1.180225e-23
0.0852412      5.692573e-03 5.228611e-01 -1.195119e-23 5.705139e-03 5.115132e-01 0.000000e+00 -1.256536e-05 1.134784e-02 -1.195119e-23
0.0859864      5.687786e-03 5.179522e-01 -1.210139e-23 5.700203e-03 5.067778e-01 0.000000e+00 -1.241665e-05 1.117442e-02 -1.210139e-23
0.0867316      5.344713e-03 4.746711e-01 -1.221704e-23 5.356750e-03 4.636749e-01 0.000000e+00 -1.203697e-05 1.099626e-02 -1.221704e-23
0.0874719      7.865316e-03 4.435777e-01 -1.233593e-23 7.877104e-03 4.327636e-01 0.000000e+00 -1.178883e-05 1.081414e-02 -1.233593e-23
0.0882074      1.344003e-02 4.272690e-01 -1.245657e-23 1.345122e-02 4.166405e-01 0.000000e+00 -1.118832e-05 1.062851e-02 -1.245657e-23
0.0889333      1.729118e-02 4.068726e-01 -1.258043e-23 1.730189e-02 3.964320e-01 0.000000e+00 -1.070532e-05 1.044065e-02 -1.258043e-23
0.0896499      1.920386e-02 4.062855e-01 -1.270734e-23 1.921381e-02 3.960347e-01 0.000000e+00 -9.954793e-06 1.025081e-02 -1.270734e-23
0.0903618      1.965419e-02 4.266922e-01 -1.284677e-23 1.966355e-02 4.166345e-01 0.000000e+00 -9.368527e-06 1.005766e-02 -1.284677e-23
0.0910692      1.778652e-02 4.553252e-01 -1.299907e-23 1.779533e-02 4.454652e-01 0.000000e+00 -8.806699e-06 9.859973e-03 -1.299907e-23
0.0917719      1.454921e-02 4.644768e-01 -1.316083e-23 1.455777e-02 4.548226e-01 0.000000e+00 -8.566197e-06 9.654213e-03 -1.316083e-23
0.0924747      1.274810e-02 4.890345e-01 -1.332299e-23 1.275661e-02 4.795939e-01 0.000000e+00 -8.506299e-06 9.440528e-03 -1.332299e-23
0.0931821      1.743267e-02 4.905489e-01 -1.349374e-23 1.744097e-02 4.813256e-01 0.000000e+00 -8.295549e-06 9.223282e-03 -1.349374e-23
0.0938895      2.404437e-02 5.024758e-01 -1.365964e-23 2.405217e-02 4.934756e-01 0.000000e+00 -7.806476e-06 9.000139e-03 -1.365964e-23
0.0945922      2.444719e-02 4.822296e-01 -1.383306e-23 2.445459e-02 4.734514e-01 0.000000e+00 -7.390919e-06 8.778232e-03 -1.383306e-23
0.0952857      2.162192e-02 4.754380e-01 -1.399888e-23 2.162904e-02 4.668851e-01 0.000000e+00 -7.115689e-06 8.552849e-03 -1.399888e-23
0.0959701      2.243051e-02 4.683078e-01 -1.416731e-23 2.243741e-02 4.599793e-01 0.000000e+00 -6.900841e-06 8.328476e-03 -1.416731e-23
0.0966501      1.898393e-02 4.700201e-01 -1.432894e-23 1.899105e-02 4.619220e-01 0.000000e+00 -7.125856e-06 8.098144e-03 -1.432894e-23
0.0973255      1.976097e-02 4.776241e-01 -1.448796e-23 1.976829e-02 4.697535e-01 0.000000e+00 -7.326582e-06 7.870611e-03 -1.448796e-23
0.0979923      2.059858e-02 4.897265e-01 -1.463670e-23 2.060578e-02 4.820869e-01 0.000000e+00 -7.201491e-06 7.639614e-03 -1.463670e-23
0.098659       1.651161e-02 4.674132e-01 -1.478464e-23 1.651880e-02 4.600012e-01 0.000000e+00 -7.198641e-06 7.411994e-03 -1.478464e-23
0.0993295      1.546573e-02 4.316976e-01 -1.492808e-23 1.547298e-02 4.245204e-01 0.000000e+00 -7.252081e-06 7.177245e-03 -1.492808e-23
0.1            2.086575e-02 4.027162e-01 -1.506946e-23 2.087297e-02 3.957700e-01 0.000000e+00 -7.220667e-06 6.946186e-03 -1.506946e-23
0.100658       2.238620e-02 4.425604e-01 -1.521117e-23 2.239333e-02 4.358448e-01 0.000000e+00 -7.129358e-06 6.715540e-03 -1.521117e-23
0.101316       2.416024e-02 4.469762e-01 -1.534995e-23 2.416744e-02 4.404867e-01 0.000000e+00 -7.197107e-06 6.489482e-03 -1.534995e-23
0.101974       2.460615e-02 4.643648e-01 -1.546977e-23 2.461327e-02 4.581070e-01 0.000000e+00 -7.117418e-06 6.257826e-03 -1.546977e-23
0.102627       2.125796e-02 4.850905e-01 -1.556625e-23 2.126519e-02 4.790583e-01 0.000000e+00 -7.230627e-06 6.032207e-03 -1.556625e-23
0.103281       1.281691e-02 4.746475e-01 -1.568169e-23 1.282453e-02 4.688448e-01 0.000000e+00 -7.620169e-06 5.802692e-03 -1.568169e-23
0.103934       6.346142e-03 4.703819e-01 -1.578437e-23 6.354152e-03 4.648051e-01 0.000000e+00 -8.009247e-06 5.576792e-03 -1.578437e-23
0.104588       4.640522e-03 4.646322e-01 -1.588815e-23 4.649137e-03 4.592884e-01 0.000000e+00 -8.614847e-06 5.343805e-03 -1.588815e-23
0.105241       6.568721e-03 4.489423e-01 -1.599276e-23 6.577991e-03 4.438284e-01 0.000000e+00 -9.270346e-06 5.113848e-03 -1.599276e-23
0.10589        6.688907e-03 4.248561e-01 -1.609914e-23 6.698532e-03 4.199757e-01 0.000000e+00 -9.625033e-06 4.880340e-03 -1.609914e-23
0.106535       4.961639e-03 4.335079e-01 -1.619583e-23 4.971803e-03 4.288565e-01 0.000000e+00 -1.016361e-05 4.651376e-03 -1.619583e-23
0.107175       4.914678e-03 4.261355e-01 -1.627486e-23 4.925569e-03 4.217151e-01 0.000000e+00 -1.089151e-05 4.420406e-03 -1.627486e-23
0.107815       8.067756e-03 4.230187e-01 -1.637391e-23 8.079198e-03 4.188268e-01 0.000000e+00 -1.144181e-05 4.191876e-03 -1.637391e-23
0.108451       5.655699e-03 4.412939e-01 -1.649123e-23 5.667814e-03 4.373336e-01 0.000000e+00 -1.211524e-05 3.960275e-03 -1.649123e-23
0.109082       2.258283e-03 4.605038e-01 -1.661860e-23 2.271123e-03 4.567698e-01 0.000000e+00 -1.283992e-05 3.734085e-03 -1.661860e-23
0.109714       -1.401849e-03 4.879614e-01 -1.674053e-23 -1.388266e-03 4.844570e-01 0.000000e+00 -1.358295e-05 3.504355e-03 -1.674053e-23
0.110345       -3.530156e-03 5.200334e-01 -1.688080e-23 -3.516101e-03 5.167570e-01 0.000000e+00 -1.405457e-05 3.276413e-03 -1.688080e-23
0.110972       -2.998347e-03 5.362878e-01 -1.701560e-23 -2.984129e-03 5.332385e-01 0.000000e+00 -1.421750e-05 3.049236e-03 -1.701560e-23
0.111599       -2.630776e-03 5.721401e-01 -1.715592e-23 -2.616643e-03 5.693130e-01 0.000000e+00 -1.413224e-05 2.827120e-03 -1.715592e-23
0.11223        2.323593e-03 5.720166e-01 -1.730150e-23 2.337708e-03 5.694167e-01 0.000000e+00 -1.411524e-05 2.599948e-03 -1.730150e-23
0.112862       5.342626e-03 5.632497e-01 -1.743374e-23 5.356897e-03 5.608760e-01 0.000000e+00 -1.427169e-05 2.373739e-03 -1.743374e-23
0.113493       7.568431e-03 5.508633e-01 -1.754545e-23 7.582697e-03 5.487180e-01 0.000000e+00 -1.426533e-05 2.145333e-03 -1.754545e-23
0.114125       9.994814e-03 5.694977e-01 -1.768876e-23 1.000929e-02 5.675831e-01 0.000000e+00 -1.447600e-05 1.914616e-03 -1.768876e-23
0.114752       1.470588e-02 5.886240e-01 -1.779799e-23 1.472032e-02 5.869387e-01 0.000000e+00 -1.443079e-05 1.685224e-03 -1.779799e-23
0.115374       1.931283e-02 6.112596e-01 -1.791946e-23 1.932725e-02 6.098069e-01 0.000000e+00 -1.441970e-05 1.452730e-03 -1.791946e-23
0.115996       2.135044e-02 5.939447e-01 -1.803394e-23 2.136473e-02 5.927247e-01 0.000000e+00 -1.429050e-05 1.220009e-03 -1.803394e-23
0.116614       1.825277e-02 6.099130e-01 -1.816467e-23 1.826728e-02 6.089287e-01 0.000000e+00 -1.451430e-05 9.843099e-04 -1.816467e-23
0.117231       1.635510e-02 6.090994e-01 -1.827702e-23 1.636966e-02 6.083485e-01 0.000000e+00 -1.455875e-05 7.509506e-04 -1.827702e-23
0.117849       1.696530e-02 6.167835e-01 -1.841813e-23 1.697998e-02 6.162720e-01 0.000000e+00 -1.468500e-05 5.115235e-04 -1.841813e-23
0.118467       1.909384e-02 5.943971e-01 -1.852892e-23 1.910848e-02 5.941224e-01 0.000000e+00 -1.464769e-05 2.746736e-04 -1.852892e-23
0.119084       2.456994e-02 6.242234e-01 -1.867720e-23 2.458429e-02 6.241907e-01 0.000000e+00 -1.435345e-05 3.271009e-05 -1.867720e-23
0.119702       2.731924e-02 6.070429e-01 -1.878406e-23 2.733292e-02 6.072464e-01 0.000000e+00 -1.368135e-05 -2.034831e-04 -1.878406e-23
0.12032        2.751176e-02 6.497593e-01 -1.893031e-23 2.752485e-02 6.502052e-01 0.000000e+00 -1.309250e-05 -4.459465e-04 -1.893031e-23
0.120942       3.015082e-02 6.283944e-01 -1.903603e-23 3.016325e-02 6.290772e-01 0.000000e+00 -1.243142e-05 -6.828244e-04 -1.903603e-23
0.121565       3.071089e-02 6.781720e-01 -1.918840e-23 3.072304e-02 6.790959e-01 0.000000e+00 -1.214680e-05 -9.238770e-04 -1.918840e-23
0.122192       2.985610e-02 6.624256e-01 -1.929542e-23 2.986804e-02 6.635847e-01 0.000000e+00 -1.193507e-05 -1.159142e-03 -1.929542e-23
0.12282        1.769228e-02 6.718626e-01 -1.942604e-23 1.770488e-02 6.732610e-01 0.000000e+00 -1.260633e-05 -1.398331e-03 -1.942604e-23
0.123447       1.244469e-02 6.654406e-01 -1.951604e-23 1.245763e-02 6.670737e-01 0.000000e+00 -1.294321e-05 -1.633054e-03 -1.951604e-23
0.124224       8.336685e-03 6.948325e-01 -1.966580e-23 8.350661e-03 6.967640e-01 0.000000e+00 -1.397600e-05 -1.931557e-03 -1.966580e-23
0.125          3.577442e-03 6.873175e-01 -1.980036e-23 3.592602e-03 6.895408e-01 0.000000e+00 -1.516053e-05 -2.223318e-03 -1.980036e-23
0.125625       6.195737e-03 8.185711e-01 -1.991869e-23 6.211623e-03 8.210303e-01 0.000000e+00 -1.588509e-05 -2.459166e-03 -1.991869e-23
0.12625        7.618627e-03 8.472753e-01 -1.998527e-23 7.635588e-03 8.499665e-01 0.000000e+00 -1.696093e-05 -2.691168e-03 -1.998527e-23
0.126875       1.109580e-02 9.365127e-01 -2.008123e-23 1.111377e-02 9.394400e-01 0.000000e+00 -1.797515e-05 -2.927327e-03 -2.008123e-23
0.1275         1.293562e-02 8.996686e-01 -2.015452e-23 1.295496e-02 9.028313e-01 0.000000e+00 -1.933994e-05 -3.162773e-03 -2.015452e-23
0.128125       1.501946e-02 9.528778e-01 -2.025490e-23 1.504030e-02 9.562759e-01 0.000000e+00 -2.083713e-05 -3.398111e-03 -2.025490e-23
0.12875        1.877224e-02 9.386657e-01 -2.031691e-23 1.879434e-02 9.422948e-01 0.000000e+00 -2.210088e-05 -3.629028e-03 -2.031691e-23
0.129375       1.991206e-02 9.701103e-01 -2.037298e-23 1.993548e-02 9.739696e-01 0.000000e+00 -2.342592e-05 -3.859352e-03 -2.037298e-23
0.13           2.124529e-02 9.701617e-01 -2.040297e-23 2.127056e-02 9.742487e-01 0.000000e+00 -2.527028e-05 -4.086975e-03 -2.040297e-23
0.130631       2.170634e-02 9.944348e-01 -2.045266e-23 2.173381e-02 9.987524e-01 0.000000e+00 -2.747860e-05 -4.317613e-03 -2.045266e-23
0.131261       2.302719e-02 9.582867e-01 -2.047924e-23 2.305684e-02 9.628325e-01 0.000000e+00 -2.965254e-05 -4.545818e-03 -2.047924e-23
0.131898       2.552484e-02 9.450512e-01 -2.052106e-23 2.555695e-02 9.498263e-01 0.000000e+00 -3.210439e-05 -4.775099e-03 -2.052106e-23
0.13254        2.877399e-02 8.674926e-01 -2.054769e-23 2.880905e-02 8.724981e-01 0.000000e+00 -3.506276e-05 -5.005500e-03 -2.054769e-23
0.133183       2.919382e-02 8.759929e-01 -2.057706e-23 2.923301e-02 8.812264e-01 0.000000e+00 -3.919530e-05 -5.233493e-03 -2.057706e-23
0.133825       2.735853e-02 8.337775e-01 -2.058754e-23 2.740091e-02 8.392347e-01 0.000000e+00 -4.238341e-05 -5.457245e-03 -2.058754e-23
0.134468       2.708492e-02 8.388861e-01 -2.061277e-23 2.712993e-02 8.445631e-01 0.000000e+00 -4.500196e-05 -5.677020e-03 -2.061277e-23
0.13511        2.120359e-02 7.697925e-01 -2.063107e-23 2.125294e-02 7.756891e-01 0.000000e+00 -4.934520e-05 -5.896676e-03 -2.063107e-23
0.135753       1.899496e-02 7.974876e-01 -2.068031e-23 1.904780e-02 8.036041e-01 0.000000e+00 -5.283935e-05 -6.116426e-03 -2.068031e-23
0.136395       1.610638e-02 7.511418e-01 -2.068517e-23 1.616330e-02 7.574764e-01 0.000000e+00 -5.692013e-05 -6.334598e-03 -2.068517e-23
0.137044       1.134535e-02 6.997240e-01 -2.072945e-23 1.140717e-02 7.062754e-01 0.000000e+00 -6.181408e-05 -6.551407e-03 -2.072945e-23
0.137693       1.017015e-02 6.670202e-01 -2.081317e-23 1.023930e-02 6.737909e-01 0.000000e+00 -6.914352e-05 -6.770643e-03 -2.081317e-23
0.138342       1.138489e-02 6.502023e-01 -2.080306e-23 1.146032e-02 6.571875e-01 0.000000e+00 -7.542732e-05 -6.985188e-03 -2.080306e-23
0.138998       1.441684e-02 5.632493e-01 -2.083855e-23 1.449722e-02 5.704510e-01 0.000000e+00 -8.037559e-05 -7.201700e-03 -2.083855e-23
0.139654       1.540634e-02 6.549672e-01 -2.093481e-23 1.549275e-02 6.623883e-01 0.000000e+00 -8.641195e-05 -7.421089e-03 -2.093481e-23
0.140317       1.448040e-02 6.967781e-01 -2.095805e-23 1.457388e-02 7.044183e-01 0.000000e+00 -9.348625e-05 -7.640158e-03 -2.095805e-23
0.14098        8.147153e-03 6.895927e-01 -2.090605e-23 8.247729e-03 6.974512e-01 0.000000e+00 -1.005764e-04 -7.858470e-03 -2.090605e-23
0.141651       1.335692e-02 7.009559e-01 -2.098920e-23 1.346322e-02 7.090485e-01 0.000000e+00 -1.062952e-04 -8.092585e-03 -2.098920e-23
0.142322       1.736851e-02 7.430304e-01 -2.105834e-23 1.747932e-02 7.513520e-01 0.000000e+00 -1.108101e-04 -8.321629e-03 -2.105834e-23
0.142992       2.078823e-02 7.200821e-01 -2.106898e-23 2.090307e-02 7.286230e-01 0.000000e+00 -1.148375e-04 -8.540992e-03 -2.106898e-23
0.143663       1.938196e-02 7.255889e-01 -2.110113e-23 1.950242e-02 7.343489e-01 0.000000e+00 -1.204596e-04 -8.759984e-03 -2.110113e-23
0.144342       1.869832e-02 7.334239e-01 -2.111213e-23 1.882499e-02 7.423985e-01 0.000000e+00 -1.266675e-04 -8.974636e-03 -2.111213e-23
0.145021       1.917326e-02 7.581589e-01 -2.113050e-23 1.930602e-02 7.673439e-01 0.000000e+00 -1.327615e-04 -9.185097e-03 -2.113050e-23
0.145699       1.738334e-02 6.617154e-01 -2.110801e-23 1.752195e-02 6.711028e-01 0.000000e+00 -1.386173e-04 -9.387364e-03 -2.110801e-23
0.146387       1.475802e-02 6.620029e-01 -2.109777e-23 1.490235e-02 6.715920e-01 0.000000e+00 -1.443238e-04 -9.589133e-03 -2.109777e-23
0.147065       1.225008e-02 6.045555e-01 -2.108202e-23 1.240106e-02 6.143424e-01 0.000000e+00 -1.509810e-04 -9.786911e-03 -2.108202e-23
0.147744       1.392402e-02 6.188859e-01 -2.106245e-23 1.408236e-02 6.288682e-01 0.000000e+00 -1.583377e-04 -9.982323e-03 -2.106245e-23
0.148414       1.509685e-02 5.764899e-01 -2.103736e-23 1.526245e-02 5.866613e-01 0.000000e+00 -1.656030e-04 -1.017139e-02 -2.103736e-23
0.149207       2.016429e-02 5.857012e-01 -2.102983e-23 2.033862e-02 5.961006e-01 0.000000e+00 -1.743276e-04 -1.039936e-02 -2.102983e-23
0.15           1.960634e-02 5.741361e-01 -2.101374e-23 1.979057e-02 5.847571e-01 0.000000e+00 -1.842342e-04 -1.062098e-02 -2.101374e-23