# Moment      
# CofR        : (0.000000e+00 0.000000e+00 0.000000e+00)
#
# Time        	total_x total_y total_z	pressure_x pressure_y pressure_z	viscous_x viscous_y viscous_z
0.00298507     -2.784185e-24 4.527561e-23 1.490969e+01 0.000000e+00 0.000000e+00 1.482130e+01 -2.784185e-24 4.527561e-23 8.839009e-02
0.0043438      -3.888581e-24 6.325881e-23 -1.196609e+01 0.000000e+00 0.000000e+00 -1.207620e+01 -3.888581e-24 6.325881e-23 1.101134e-01
0.00555905     -4.302580e-24 7.001106e-23 -8.037902e+00 0.000000e+00 0.000000e+00 -8.166218e+00 -4.302580e-24 7.001106e-23 1.283151e-01
0.00671644     -4.557447e-24 7.417611e-23 -5.376588e+00 0.000000e+00 0.000000e+00 -5.521049e+00 -4.557447e-24 7.417611e-23 1.444612e-01
0.00777844     -4.666582e-24 7.595059e-23 -6.464647e+00 0.000000e+00 0.000000e+00 -6.623819e+00 -4.666582e-24 7.595059e-23 1.591727e-01
0.00875916     -4.784110e-24 7.784932e-23 -7.062443e+00 0.000000e+00 0.000000e+00 -7.235750e+00 -4.784110e-24 7.784932e-23 1.733078e-01
0.00968751     -4.911961e-24 7.989872e-23 -6.200341e+00 0.000000e+00 0.000000e+00 -6.387679e+00 -4.911961e-24 7.989872e-23 1.873375e-01
0.0105727      -5.119531e-24 8.322420e-23 -5.429913e+00 0.000000e+00 0.000000e+00 -5.631114e+00 -5.119531e-24 8.322420e-23 2.012006e-01
0.0114221      -5.394490e-24 8.762210e-23 -3.196660e+00 0.000000e+00 0.000000e+00 -3.411460e+00 -5.394490e-24 8.762210e-23 2.147999e-01
0.0122456      -5.703388e-24 9.254688e-23 -1.968399e+00 0.000000e+00 0.000000e+00 -2.196512e+00 -5.703388e-24 9.254688e-23 2.281134e-01
0.0130446      -6.046828e-24 9.802278e-23 -1.049652e+00 0.000000e+00 0.000000e+00 -1.291208e+00 -6.046828e-24 9.802278e-23 2.415555e-01
0.0138236      -6.450537e-24 1.044854e-22 1.044088e+00 0.000000e+00 0.000000e+00 7.914124e-01 -6.450537e-24 1.044854e-22 2.526753e-01
0.0145897      -6.967936e-24 1.128065e-22 3.020957e+00 0.000000e+00 0.000000e+00 2.762590e+00 -6.967936e-24 1.128065e-22 2.583678e-01
0.0153343      -7.513287e-24 1.215851e-22 3.017044e+00 0.000000e+00 0.000000e+00 2.753653e+00 -7.513287e-24 1.215851e-22 2.633911e-01
0.0160557      -8.124278e-24 1.314415e-22 3.960420e+00 0.000000e+00 0.000000e+00 3.691518e+00 -8.124278e-24 1.314415e-22 2.689015e-01
0.0167578      -8.794857e-24 1.422763e-22 5.202304e+00 0.000000e+00 0.000000e+00 4.927838e+00 -8.794857e-24 1.422763e-22 2.744656e-01
0.0174441      -9.481692e-24 1.533814e-22 6.573522e+00 0.000000e+00 0.000000e+00 6.293749e+00 -9.481692e-24 1.533814e-22 2.797726e-01
0.0181152      -1.015082e-23 1.642025e-22 6.535017e+00 0.000000e+00 0.000000e+00 6.250185e+00 -1.015082e-23 1.642025e-22 2.848320e-01
0.0187742      -1.084117e-23 1.753735e-22 7.252379e+00 0.000000e+00 0.000000e+00 6.962478e+00 -1.084117e-23 1.753735e-22 2.899010e-01
0.0194238      -1.154727e-23 1.868017e-22 7.733113e+00 0.000000e+00 0.000000e+00 7.438308e+00 -1.154727e-23 1.868017e-22 2.948055e-01
0.0200641      -1.225247e-23 1.982183e-22 8.741985e+00 0.000000e+00 0.000000e+00 8.443330e+00 -1.225247e-23 1.982183e-22 2.986555e-01
0.0206977      -1.296288e-23 2.097224e-22 9.333899e+00 0.000000e+00 0.000000e+00 9.032030e+00 -1.296288e-23 2.097224e-22 3.018693e-01
0.0213246      -1.366403e-23 2.210803e-22 1.043581e+01 0.000000e+00 0.000000e+00 1.013109e+01 -1.366403e-23 2.210803e-22 3.047248e-01
0.0219472      -1.435628e-23 2.322975e-22 1.156729e+01 0.000000e+00 0.000000e+00 1.125996e+01 -1.435628e-23 2.322975e-22 3.073382e-01
0.0225654      -1.502334e-23 2.431086e-22 1.229717e+01 0.000000e+00 0.000000e+00 1.198722e+01 -1.502334e-23 2.431086e-22 3.099413e-01
0.0231815      -1.567540e-23 2.536816e-22 1.264439e+01 0.000000e+00 0.000000e+00 1.233181e+01 -1.567540e-23 2.536816e-22 3.125863e-01
0.0237877      -1.630247e-23 2.638524e-22 1.292868e+01 0.000000e+00 0.000000e+00 1.261343e+01 -1.630247e-23 2.638524e-22 3.152559e-01
0.0243938      -1.690940e-23 2.736975e-22 1.334006e+01 0.000000e+00 0.000000e+00 1.302203e+01 -1.690940e-23 2.736975e-22 3.180238e-01
0.025          -1.750114e-23 2.832985e-22 1.352517e+01 0.000000e+00 0.000000e+00 1.320424e+01 -1.750114e-23 2.832985e-22 3.209350e-01
0.025614       -1.808992e-23 2.928556e-22 1.330361e+01 0.000000e+00 0.000000e+00 1.297957e+01 -1.808992e-23 2.928556e-22 3.240446e-01
0.0262238      -1.865927e-23 3.021018e-22 1.319248e+01 0.000000e+00 0.000000e+00 1.286531e+01 -1.865927e-23 3.021018e-22 3.271642e-01
0.0268293      -1.921668e-23 3.111579e-22 1.277323e+01 0.000000e+00 0.000000e+00 1.244349e+01 -1.921668e-23 3.111579e-22 3.297373e-01
0.0274306      -1.973286e-23 3.195463e-22 1.287503e+01 0.000000e+00 0.000000e+00 1.254276e+01 -1.973286e-23 3.195463e-22 3.322742e-01
0.0280256      -2.020594e-23 3.272340e-22 1.279379e+01 0.000000e+00 0.000000e+00 1.245898e+01 -2.020594e-23 3.272340e-22 3.348134e-01
0.0286146      -2.063549e-23 3.342123e-22 1.272323e+01 0.000000e+00 0.000000e+00 1.238585e+01 -2.063549e-23 3.342123e-22 3.373799e-01
0.0292015      -2.101708e-23 3.404104e-22 1.334600e+01 0.000000e+00 0.000000e+00 1.300604e+01 -2.101708e-23 3.404104e-22 3.399604e-01
0.0297864      -2.134120e-23 3.456730e-22 1.330529e+01 0.000000e+00 0.000000e+00 1.296276e+01 -2.134120e-23 3.456730e-22 3.425352e-01
0.0303714      -2.160507e-23 3.499528e-22 1.327027e+01 0.000000e+00 0.000000e+00 1.292504e+01 -2.160507e-23 3.499528e-22 3.452221e-01
0.0309543      -2.181965e-23 3.534315e-22 1.374499e+01 0.000000e+00 0.000000e+00 1.339714e+01 -2.181965e-23 3.534315e-22 3.478441e-01
0.0315372      -2.196776e-23 3.558252e-22 1.427449e+01 0.000000e+00 0.000000e+00 1.392417e+01 -2.196776e-23 3.558252e-22 3.503237e-01
0.0321221      -2.206921e-23 3.574604e-22 1.508045e+01 0.000000e+00 0.000000e+00 1.472765e+01 -2.206921e-23 3.574604e-22 3.527928e-01
0.0327071      -2.211397e-23 3.581721e-22 1.527168e+01 0.000000e+00 0.000000e+00 1.491642e+01 -2.211397e-23 3.581721e-22 3.552535e-01
0.033292       -2.212044e-23 3.582620e-22 1.551033e+01 0.000000e+00 0.000000e+00 1.515268e+01 -2.212044e-23 3.582620e-22 3.576404e-01
0.033877       -2.206751e-23 3.573791e-22 1.543477e+01 0.000000e+00 0.000000e+00 1.507479e+01 -2.206751e-23 3.573791e-22 3.599854e-01
0.034464       -2.197617e-23 3.558700e-22 1.567947e+01 0.000000e+00 0.000000e+00 1.531714e+01 -2.197617e-23 3.558700e-22 3.623317e-01
0.0350531      -2.182330e-23 3.533553e-22 1.560354e+01 0.000000e+00 0.000000e+00 1.523867e+01 -2.182330e-23 3.533553e-22 3.648699e-01
0.0356443      -2.163676e-23 3.502911e-22 1.639249e+01 0.000000e+00 0.000000e+00 1.602477e+01 -2.163676e-23 3.502911e-22 3.677178e-01
0.0362376      -2.139919e-23 3.463916e-22 1.560288e+01 0.000000e+00 0.000000e+00 1.523219e+01 -2.139919e-23 3.463916e-22 3.706948e-01
0.0368246      -2.114110e-23 3.421578e-22 1.554265e+01 0.000000e+00 0.000000e+00 1.516905e+01 -2.114110e-23 3.421578e-22 3.735992e-01
0.0374073      -2.085528e-23 3.374711e-22 1.491829e+01 0.000000e+00 0.000000e+00 1.454188e+01 -2.085528e-23 3.374711e-22 3.764094e-01
0.037986       -2.055631e-23 3.325721e-22 1.486011e+01 0.000000e+00 0.000000e+00 1.448090e+01 -2.055631e-23 3.325721e-22 3.792112e-01
0.0385625      -2.023516e-23 3.273135e-22 1.525245e+01 0.000000e+00 0.000000e+00 1.487053e+01 -2.023516e-23 3.273135e-22 3.819222e-01
0.039137       -1.989813e-23 3.218010e-22 1.474152e+01 0.000000e+00 0.000000e+00 1.435693e+01 -1.989813e-23 3.218010e-22 3.845875e-01
0.0397115      -1.953728e-23 3.159020e-22 1.391756e+01 0.000000e+00 0.000000e+00 1.353032e+01 -1.953728e-23 3.159020e-22 3.872374e-01
0.0402861      -1.916100e-23 3.097551e-22 1.316341e+01 0.000000e+00 0.000000e+00 1.277358e+01 -1.916100e-23 3.097551e-22 3.898307e-01
0.0408626      -1.875745e-23 3.031673e-22 1.346656e+01 0.000000e+00 0.000000e+00 1.307419e+01 -1.875745e-23 3.031673e-22 3.923684e-01
0.0414413      -1.832844e-23 2.961662e-22 1.479633e+01 0.000000e+00 0.000000e+00 1.440144e+01 -1.832844e-23 2.961662e-22 3.948961e-01
0.0420221      -1.787946e-23 2.888411e-22 1.466073e+01 0.000000e+00 0.000000e+00 1.426326e+01 -1.787946e-23 2.888411e-22 3.974710e-01
0.0426072      -1.741370e-23 2.812454e-22 1.411176e+01 0.000000e+00 0.000000e+00 1.371164e+01 -1.741370e-23 2.812454e-22 4.001209e-01
0.0431945      -1.692769e-23 2.733234e-22 1.398040e+01 0.000000e+00 0.000000e+00 1.357764e+01 -1.692769e-23 2.733234e-22 4.027625e-01
0.0437862      -1.643004e-23 2.652127e-22 1.490469e+01 0.000000e+00 0.000000e+00 1.449937e+01 -1.643004e-23 2.652127e-22 4.053214e-01
0.0443802      -1.591577e-23 2.568326e-22 1.598747e+01 0.000000e+00 0.000000e+00 1.557952e+01 -1.591577e-23 2.568326e-22 4.079484e-01
0.0449787      -1.538417e-23 2.481723e-22 1.665962e+01 0.000000e+00 0.000000e+00 1.624887e+01 -1.538417e-23 2.481723e-22 4.107513e-01
0.0455796      -1.483604e-23 2.392440e-22 1.597041e+01 0.000000e+00 0.000000e+00 1.555687e+01 -1.483604e-23 2.392440e-22 4.135426e-01
0.0461828      -1.427839e-23 2.301592e-22 1.507294e+01 0.000000e+00 0.000000e+00 1.465686e+01 -1.427839e-23 2.301592e-22 4.160767e-01
0.0467884      -1.371095e-23 2.209161e-22 1.577985e+01 0.000000e+00 0.000000e+00 1.536143e+01 -1.371095e-23 2.209161e-22 4.184131e-01
0.0473964      -1.314115e-23 2.116352e-22 1.609016e+01 0.000000e+00 0.000000e+00 1.566963e+01 -1.314115e-23 2.116352e-22 4.205283e-01
0.0480068      -1.256707e-23 2.022860e-22 1.727613e+01 0.000000e+00 0.000000e+00 1.685362e+01 -1.256707e-23 2.022860e-22 4.225070e-01
0.0486197      -1.199882e-23 1.930332e-22 1.808399e+01 0.000000e+00 0.000000e+00 1.765975e+01 -1.199882e-23 1.930332e-22 4.242390e-01
0.0493098      -1.136969e-23 1.827911e-22 1.732843e+01 0.000000e+00 0.000000e+00 1.690230e+01 -1.136969e-23 1.827911e-22 4.261295e-01
0.05           -1.076635e-23 1.729701e-22 1.654562e+01 0.000000e+00 0.000000e+00 1.611781e+01 -1.076635e-23 1.729701e-22 4.278108e-01
0.0506198      -1.024505e-23 1.644862e-22 1.657071e+01 0.000000e+00 0.000000e+00 1.614138e+01 -1.024505e-23 1.644862e-22 4.293367e-01
0.0512423      -9.745767e-24 1.563631e-22 1.651833e+01 0.000000e+00 0.000000e+00 1.608773e+01 -9.745767e-24 1.563631e-22 4.305966e-01
0.0518673      -9.267784e-24 1.485909e-22 1.711803e+01 0.000000e+00 0.000000e+00 1.668650e+01 -9.267784e-24 1.485909e-22 4.315240e-01
0.052495       -8.823098e-24 1.413635e-22 1.713044e+01 0.000000e+00 0.000000e+00 1.669801e+01 -8.823098e-24 1.413635e-22 4.324365e-01
0.0531253      -8.414298e-24 1.347222e-22 1.766885e+01 0.000000e+00 0.000000e+00 1.723550e+01 -8.414298e-24 1.347222e-22 4.333505e-01
0.0537584      -8.046010e-24 1.287426e-22 1.794689e+01 0.000000e+00 0.000000e+00 1.751263e+01 -8.046010e-24 1.287426e-22 4.342586e-01
0.0543915      -7.724315e-24 1.235238e-22 1.793204e+01 0.000000e+00 0.000000e+00 1.749699e+01 -7.724315e-24 1.235238e-22 4.350566e-01
0.0550273      -7.446430e-24 1.190201e-22 1.868606e+01 0.000000e+00 0.000000e+00 1.825035e+01 -7.446430e-24 1.190201e-22 4.357142e-01
0.055666       -7.211536e-24 1.152183e-22 1.858744e+01 0.000000e+00 0.000000e+00 1.815123e+01 -7.211536e-24 1.152183e-22 4.362141e-01
0.0563046      -7.019424e-24 1.121147e-22 1.951420e+01 0.000000e+00 0.000000e+00 1.907764e+01 -7.019424e-24 1.121147e-22 4.365641e-01
0.0569461      -6.882380e-24 1.099145e-22 1.939460e+01 0.000000e+00 0.000000e+00 1.895773e+01 -6.882380e-24 1.099145e-22 4.368674e-01
0.0575905      -6.914327e-24 1.104838e-22 1.902157e+01 0.000000e+00 0.000000e+00 1.858446e+01 -6.914327e-24 1.104838e-22 4.371147e-01
0.0582349      -7.076342e-24 1.131532e-22 1.860970e+01 0.000000e+00 0.000000e+00 1.817240e+01 -7.076342e-24 1.131532e-22 4.372936e-01
0.0588822      -7.311361e-24 1.169999e-22 1.819834e+01 0.000000e+00 0.000000e+00 1.776084e+01 -7.311361e-24 1.169999e-22 4.375055e-01
0.0595325      -7.629369e-24 1.222028e-22 1.834736e+01 0.000000e+00 0.000000e+00 1.790964e+01 -7.629369e-24 1.222028e-22 4.377281e-01
0.0601859      -8.023764e-24 1.286587e-22 1.786875e+01 0.000000e+00 0.000000e+00 1.743076e+01 -8.023764e-24 1.286587e-22 4.379829e-01
0.0608423      -8.419449e-24 1.351373e-22 1.857027e+01 0.000000e+00 0.000000e+00 1.813216e+01 -8.419449e-24 1.351373e-22 4.381086e-01
0.0615049      -8.817496e-24 1.416533e-22 1.826845e+01 0.000000e+00 0.000000e+00 1.783032e+01 -8.817496e-24 1.416533e-22 4.381311e-01
0.0621708      -9.217408e-24 1.481984e-22 1.799994e+01 0.000000e+00 0.000000e+00 1.756192e+01 -9.217408e-24 1.481984e-22 4.380179e-01
0.0628399      -9.611147e-24 1.546407e-22 1.753024e+01 0.000000e+00 0.000000e+00 1.709247e+01 -9.611147e-24 1.546407e-22 4.377720e-01
0.0635155      -9.962441e-24 1.603500e-22 1.693119e+01 0.000000e+00 0.000000e+00 1.649377e+01 -9.962441e-24 1.603500e-22 4.374196e-01
0.0641945      -1.033452e-23 1.663983e-22 1.658786e+01 0.000000e+00 0.000000e+00 1.615087e+01 -1.033452e-23 1.663983e-22 4.369888e-01
0.064877       -1.072185e-23 1.726959e-22 1.657574e+01 0.000000e+00 0.000000e+00 1.613925e+01 -1.072185e-23 1.726959e-22 4.364854e-01
0.0655629      -1.112090e-23 1.791861e-22 1.602895e+01 0.000000e+00 0.000000e+00 1.559307e+01 -1.112090e-23 1.791861e-22 4.358819e-01
0.0662523      -1.152750e-23 1.858003e-22 1.577309e+01 0.000000e+00 0.000000e+00 1.533792e+01 -1.152750e-23 1.858003e-22 4.351786e-01
0.0669453      -1.194133e-23 1.925343e-22 1.609448e+01 0.000000e+00 0.000000e+00 1.566009e+01 -1.194133e-23 1.925343e-22 4.343899e-01
0.0676419      -1.236033e-23 1.993543e-22 1.673759e+01 0.000000e+00 0.000000e+00 1.630418e+01 -1.236033e-23 1.993543e-22 4.334104e-01
0.0683422      -1.278739e-23 2.063056e-22 1.696783e+01 0.000000e+00 0.000000e+00 1.653558e+01 -1.278739e-23 2.063056e-22 4.322497e-01
0.0690425      -1.321712e-23 2.133038e-22 1.703263e+01 0.000000e+00 0.000000e+00 1.660167e+01 -1.321712e-23 2.133038e-22 4.309628e-01
0.0697466      -1.365541e-23 2.204427e-22 1.674249e+01 0.000000e+00 0.000000e+00 1.631297e+01 -1.365541e-23 2.204427e-22 4.295157e-01
0.0704507      -1.410500e-23 2.277665e-22 1.693749e+01 0.000000e+00 0.000000e+00 1.650967e+01 -1.410500e-23 2.277665e-22 4.278198e-01
0.0711586      -1.456300e-23 2.352286e-22 1.713685e+01 0.000000e+00 0.000000e+00 1.671099e+01 -1.456300e-23 2.352286e-22 4.258635e-01
0.0718665      -1.502211e-23 2.427112e-22 1.683656e+01 0.000000e+00 0.000000e+00 1.641293e+01 -1.502211e-23 2.427112e-22 4.236359e-01
0.0725784      -1.548709e-23 2.502916e-22 1.672505e+01 0.000000e+00 0.000000e+00 1.630386e+01 -1.548709e-23 2.502916e-22 4.211893e-01
0.0732902      -1.595205e-23 2.578732e-22 1.666230e+01 0.000000e+00 0.000000e+00 1.624374e+01 -1.595205e-23 2.578732e-22 4.185660e-01
0.0741451      -1.651866e-23 2.671110e-22 1.651841e+01 0.000000e+00 0.000000e+00 1.610336e+01 -1.651866e-23 2.671110e-22 4.150499e-01
0.075          -1.709104e-23 2.764470e-22 1.689352e+01 0.000000e+00 0.000000e+00 1.648239e+01 -1.709104e-23 2.764470e-22 4.111222e-01
0.0757184      -1.756152e-23 2.841233e-22 1.631727e+01 0.000000e+00 0.000000e+00 1.590926e+01 -1.756152e-23 2.841233e-22 4.080174e-01
0.0764368      -1.804577e-23 2.920243e-22 1.587506e+01 0.000000e+00 0.000000e+00 1.547011e+01 -1.804577e-23 2.920243e-22 4.049496e-01
0.0771594      -1.851861e-23 2.997393e-22 1.580091e+01 0.000000e+00 0.000000e+00 1.539946e+01 -1.851861e-23 2.997393e-22 4.014534e-01
0.077882       -1.898168e-23 3.072945e-22 1.551564e+01 0.000000e+00 0.000000e+00 1.511794e+01 -1.898168e-23 3.072945e-22 3.976986e-01
0.0786089      -1.944171e-23 3.147989e-22 1.517859e+01 0.000000e+00 0.000000e+00 1.478484e+01 -1.944171e-23 3.147989e-22 3.937527e-01
0.0793358      -1.988088e-23 3.219629e-22 1.508837e+01 0.000000e+00 0.000000e+00 1.469877e+01 -1.988088e-23 3.219629e-22 3.896000e-01
0.0800671      -2.031728e-23 3.290792e-22 1.484797e+01 0.000000e+00 0.000000e+00 1.446266e+01 -2.031728e-23 3.290792e-22 3.853093e-01
0.0807983      -2.072213e-23 3.356854e-22 1.525281e+01 0.000000e+00 0.000000e+00 1.487191e+01 -2.072213e-23 3.356854e-22 3.809002e-01
0.0815342      -2.110067e-23 3.418666e-22 1.586579e+01 0.000000e+00 0.000000e+00 1.548940e+01 -2.110067e-23 3.418666e-22 3.763810e-01
0.08227        -2.144793e-23 3.475347e-22 1.653625e+01 0.000000e+00 0.000000e+00 1.616450e+01 -2.144793e-23 3.475347e-22 3.717471e-01
0.0830104      -2.175620e-23 3.525487e-22 1.723075e+01 0.000000e+00 0.000000e+00 1.686383e+01 -2.175620e-23 3.525487e-22 3.669295e-01
0.0837509      -2.204266e-23 3.572061e-22 1.744753e+01 0.000000e+00 0.000000e+00 1.708555e+01 -2.204266e-23 3.572061e-22 3.619830e-01
0.084496       -2.232854e-23 3.618543e-22 1.621739e+01 0.000000e+00 0.000000e+00 1.586052e+01 -2.232854e-23 3.618543e-22 3.568796e-01
0.0852412      -2.260981e-23 3.664303e-22 1.618183e+01 0.000000e+00 0.000000e+00 1.583020e+01 -2.260981e-23 3.664303e-22 3.516282e-01
0.0859864      -2.289351e-23 3.710463e-22 1.602937e+01 0.000000e+00 0.000000e+00 1.568311e+01 -2.289351e-23 3.710463e-22 3.462541e-01
0.0867316      -2.311188e-23 3.745899e-22 1.468919e+01 0.000000e+00 0.000000e+00 1.434846e+01 -2.311188e-23 3.745899e-22 3.407327e-01
0.0874719      -2.333637e-23 3.782328e-22 1.372143e+01 0.000000e+00 0.000000e+00 1.338634e+01 -2.333637e-23 3.782328e-22 3.350889e-01
0.0882074      -2.356416e-23 3.819293e-22 1.320740e+01 0.000000e+00 0.000000e+00 1.287806e+01 -2.356416e-23 3.819293e-22 3.293360e-01
0.0889333      -2.379807e-23 3.857261e-22 1.256904e+01 0.000000e+00 0.000000e+00 1.224552e+01 -2.379807e-23 3.857261e-22 3.235146e-01
0.0896499      -2.403773e-23 3.896183e-22 1.254788e+01 0.000000e+00 0.000000e+00 1.223025e+01 -2.403773e-23 3.896183e-22 3.176310e-01
0.0903618      -2.430112e-23 3.939139e-22 1.317893e+01 0.000000e+00 0.000000e+00 1.286728e+01 -2.430112e-23 3.939139e-22 3.116453e-01
0.0910692      -2.458891e-23 3.986126e-22 1.407111e+01 0.000000e+00 0.000000e+00 1.376560e+01 -2.458891e-23 3.986126e-22 3.055192e-01
0.0917719      -2.489466e-23 4.036066e-22 1.436166e+01 0.000000e+00 0.000000e+00 1.406252e+01 -2.489466e-23 4.036066e-22 2.991439e-01
0.0924747      -2.520118e-23 4.086145e-22 1.512552e+01 0.000000e+00 0.000000e+00 1.483300e+01 -2.520118e-23 4.086145e-22 2.925241e-01
0.0931821      -2.552402e-23 4.138881e-22 1.516701e+01 0.000000e+00 0.000000e+00 1.488122e+01 -2.552402e-23 4.138881e-22 2.857942e-01
0.0938895      -2.583774e-23 4.190093e-22 1.552502e+01 0.000000e+00 0.000000e+00 1.524614e+01 -2.583774e-23 4.190093e-22 2.788828e-01
0.0945922      -2.616574e-23 4.243631e-22 1.489588e+01 0.000000e+00 0.000000e+00 1.462387e+01 -2.616574e-23 4.243631e-22 2.720087e-01
0.0952857      -2.647943e-23 4.294803e-22 1.469102e+01 0.000000e+00 0.000000e+00 1.442599e+01 -2.647943e-23 4.294803e-22 2.650276e-01
0.0959701      -2.679816e-23 4.346786e-22 1.446676e+01 0.000000e+00 0.000000e+00 1.420868e+01 -2.679816e-23 4.346786e-22 2.580783e-01
0.0966501      -2.710412e-23 4.396649e-22 1.452436e+01 0.000000e+00 0.000000e+00 1.427341e+01 -2.710412e-23 4.396649e-22 2.509454e-01
0.0973255      -2.740514e-23 4.445691e-22 1.475826e+01 0.000000e+00 0.000000e+00 1.451436e+01 -2.740514e-23 4.445691e-22 2.438991e-01
0.0979923      -2.768680e-23 4.491528e-22 1.513500e+01 0.000000e+00 0.000000e+00 1.489826e+01 -2.768680e-23 4.491528e-22 2.367449e-01
0.098659       -2.796696e-23 4.537112e-22 1.445004e+01 0.000000e+00 0.000000e+00 1.422035e+01 -2.796696e-23 4.537112e-22 2.296951e-01
0.0993295      -2.823862e-23 4.581292e-22 1.334212e+01 0.000000e+00 0.000000e+00 1.311970e+01 -2.823862e-23 4.581292e-22 2.224243e-01
0.1            -2.850637e-23 4.624844e-22 1.243750e+01 0.000000e+00 0.000000e+00 1.222223e+01 -2.850637e-23 4.624844e-22 2.152679e-01
0.100658       -2.877479e-23 4.668513e-22 1.366924e+01 0.000000e+00 0.000000e+00 1.346112e+01 -2.877479e-23 4.668513e-22 2.081242e-01
0.101316       -2.903769e-23 4.711280e-22 1.380240e+01 0.000000e+00 0.000000e+00 1.360128e+01 -2.903769e-23 4.711280e-22 2.011229e-01
0.101974       -2.926467e-23 4.748171e-22 1.433624e+01 0.000000e+00 0.000000e+00 1.414230e+01 -2.926467e-23 4.748171e-22 1.939472e-01
0.102627       -2.944752e-23 4.777856e-22 1.497944e+01 0.000000e+00 0.000000e+00 1.479248e+01 -2.944752e-23 4.777856e-22 1.869587e-01
0.103281       -2.966623e-23 4.813436e-22 1.467025e+01 0.000000e+00 0.000000e+00 1.449040e+01 -2.966623e-23 4.813436e-22 1.798500e-01
0.103934       -2.986088e-23 4.845064e-22 1.454854e+01 0.000000e+00 0.000000e+00 1.437568e+01 -2.986088e-23 4.845064e-22 1.728534e-01
0.104588       -3.005753e-23 4.877110e-22 1.437468e+01 0.000000e+00 0.000000e+00 1.420904e+01 -3.005753e-23 4.877110e-22 1.656377e-01
0.105241       -3.025586e-23 4.909377e-22 1.388466e+01 0.000000e+00 0.000000e+00 1.372614e+01 -3.025586e-23 4.909377e-22 1.585162e-01
0.10589        -3.045752e-23 4.942258e-22 1.314165e+01 0.000000e+00 0.000000e+00 1.299036e+01 -3.045752e-23 4.942258e-22 1.512844e-01
0.106535       -3.064067e-23 4.972099e-22 1.340540e+01 0.000000e+00 0.000000e+00 1.326121e+01 -3.064067e-23 4.972099e-22 1.441938e-01
0.107175       -3.079032e-23 4.996549e-22 1.317740e+01 0.000000e+00 0.000000e+00 1.304036e+01 -3.079032e-23 4.996549e-22 1.370412e-01
0.107815       -3.097774e-23 5.027248e-22 1.307911e+01 0.000000e+00 0.000000e+00 1.294914e+01 -3.097774e-23 5.027248e-22 1.299633e-01
0.108451       -3.119974e-23 5.063641e-22 1.364796e+01 0.000000e+00 0.000000e+00 1.352517e+01 -3.119974e-23 5.063641e-22 1.227899e-01
0.109082       -3.144060e-23 5.103296e-22 1.425390e+01 0.000000e+00 0.000000e+00 1.413811e+01 -3.144060e-23 5.103296e-22 1.157841e-01
0.109714       -3.167119e-23 5.141268e-22 1.510788e+01 0.000000e+00 0.000000e+00 1.499921e+01 -3.167119e-23 5.141268e-22 1.086687e-01
0.110345       -3.193642e-23 5.184877e-22 1.610760e+01 0.000000e+00 0.000000e+00 1.600599e+01 -3.193642e-23 5.184877e-22 1.016089e-01
0.110972       -3.219128e-23 5.226826e-22 1.660891e+01 0.000000e+00 0.000000e+00 1.651434e+01 -3.219128e-23 5.226826e-22 9.457207e-02
0.111599       -3.245657e-23 5.270455e-22 1.772017e+01 0.000000e+00 0.000000e+00 1.763248e+01 -3.245657e-23 5.270455e-22 8.769080e-02
0.11223        -3.273170e-23 5.315622e-22 1.770610e+01 0.000000e+00 0.000000e+00 1.762545e+01 -3.273170e-23 5.315622e-22 8.065232e-02
0.112862       -3.298172e-23 5.356666e-22 1.742883e+01 0.000000e+00 0.000000e+00 1.735519e+01 -3.298172e-23 5.356666e-22 7.364357e-02
0.113493       -3.319286e-23 5.391435e-22 1.704335e+01 0.000000e+00 0.000000e+00 1.697678e+01 -3.319286e-23 5.391435e-22 6.656582e-02
0.114125       -3.346365e-23 5.435689e-22 1.761939e+01 0.000000e+00 0.000000e+00 1.755997e+01 -3.346365e-23 5.435689e-22 5.941829e-02
0.114752       -3.367006e-23 5.469605e-22 1.820377e+01 0.000000e+00 0.000000e+00 1.815146e+01 -3.367006e-23 5.469605e-22 5.231073e-02
0.115374       -3.389964e-23 5.507098e-22 1.889812e+01 0.000000e+00 0.000000e+00 1.885301e+01 -3.389964e-23 5.507098e-22 4.510879e-02
0.115996       -3.411597e-23 5.542716e-22 1.835576e+01 0.000000e+00 0.000000e+00 1.831786e+01 -3.411597e-23 5.542716e-22 3.789839e-02
0.116614       -3.436299e-23 5.583014e-22 1.886109e+01 0.000000e+00 0.000000e+00 1.883049e+01 -3.436299e-23 5.583014e-22 3.059742e-02
0.117231       -3.457525e-23 5.617963e-22 1.883474e+01 0.000000e+00 0.000000e+00 1.881137e+01 -3.457525e-23 5.617963e-22 2.336802e-02
0.117849       -3.484185e-23 5.661449e-22 1.907787e+01 0.000000e+00 0.000000e+00 1.906192e+01 -3.484185e-23 5.661449e-22 1.595185e-02
0.118467       -3.505116e-23 5.695893e-22 1.837735e+01 0.000000e+00 0.000000e+00 1.836873e+01 -3.505116e-23 5.695893e-22 8.614537e-03
0.119084       -3.533126e-23 5.741578e-22 1.929508e+01 0.000000e+00 0.000000e+00 1.929396e+01 -3.533126e-23 5.741578e-22 1.118611e-03
0.119702       -3.553312e-23 5.774762e-22 1.875776e+01 0.000000e+00 0.000000e+00 1.876396e+01 -3.553312e-23 5.774762e-22 -6.200493e-03
0.12032        -3.580935e-23 5.819762e-22 2.008241e+01 0.000000e+00 0.000000e+00 2.009612e+01 -3.580935e-23 5.819762e-22 -1.371219e-02
0.120942       -3.600900e-23 5.852564e-22 1.941101e+01 0.000000e+00 0.000000e+00 1.943206e+01 -3.600900e-23 5.852564e-22 -2.105228e-02
0.121565       -3.629670e-23 5.899441e-22 2.095163e+01 0.000000e+00 0.000000e+00 2.098015e+01 -3.629670e-23 5.899441e-22 -2.851944e-02
0.122192       -3.649873e-23 5.932622e-22 2.046409e+01 0.000000e+00 0.000000e+00 2.049990e+01 -3.649873e-23 5.932622e-22 -3.580909e-02
0.12282        -3.674523e-23 5.972773e-22 2.076708e+01 0.000000e+00 0.000000e+00 2.081030e+01 -3.674523e-23 5.972773e-22 -4.321711e-02
0.123447       -3.691514e-23 6.000647e-22 2.057532e+01 0.000000e+00 0.000000e+00 2.062581e+01 -3.691514e-23 6.000647e-22 -5.048922e-02
0.124224       -3.719755e-23 6.046589e-22 2.148996e+01 0.000000e+00 0.000000e+00 2.154970e+01 -3.719755e-23 6.046589e-22 -5.973712e-02
0.125          -3.745130e-23 6.087984e-22 2.126772e+01 0.000000e+00 0.000000e+00 2.133650e+01 -3.745130e-23 6.087984e-22 -6.877623e-02
0.125625       -3.767472e-23 6.124346e-22 2.532682e+01 0.000000e+00 0.000000e+00 2.540291e+01 -3.767472e-23 6.124346e-22 -7.608324e-02
0.12625        -3.780034e-23 6.145317e-22 2.621842e+01 0.000000e+00 0.000000e+00 2.630169e+01 -3.780034e-23 6.145317e-22 -8.327180e-02
0.126875       -3.798148e-23 6.175130e-22 2.897530e+01 0.000000e+00 0.000000e+00 2.906589e+01 -3.798148e-23 6.175130e-22 -9.058872e-02
0.1275         -3.811980e-23 6.198176e-22 2.782971e+01 0.000000e+00 0.000000e+00 2.792760e+01 -3.811980e-23 6.198176e-22 -9.788299e-02
0.128125       -3.830917e-23 6.229277e-22 2.946952e+01 0.000000e+00 0.000000e+00 2.957470e+01 -3.830917e-23 6.229277e-22 -1.051726e-01
0.12875        -3.842603e-23 6.248760e-22 2.902743e+01 0.000000e+00 0.000000e+00 2.913975e+01 -3.842603e-23 6.248760e-22 -1.123259e-01
0.129375       -3.853167e-23 6.266125e-22 2.999899e+01 0.000000e+00 0.000000e+00 3.011845e+01 -3.853167e-23 6.266125e-22 -1.194599e-01
0.13           -3.858811e-23 6.275520e-22 3.000538e+01 0.000000e+00 0.000000e+00 3.013189e+01 -3.858811e-23 6.275520e-22 -1.265095e-01
0.130631       -3.868174e-23 6.290789e-22 3.075386e+01 0.000000e+00 0.000000e+00 3.088751e+01 -3.868174e-23 6.290789e-22 -1.336514e-01
0.131261       -3.873177e-23 6.299107e-22 2.962818e+01 0.000000e+00 0.000000e+00 2.976889e+01 -3.873177e-23 6.299107e-22 -1.407184e-01
0.131898       -3.881058e-23 6.311948e-22 2.922320e+01 0.000000e+00 0.000000e+00 2.937102e+01 -3.881058e-23 6.311948e-22 -1.478185e-01
0.13254        -3.886066e-23 6.320310e-22 2.682187e+01 0.000000e+00 0.000000e+00 2.697682e+01 -3.886066e-23 6.320310e-22 -1.549523e-01
0.133183       -3.891605e-23 6.329265e-22 2.708766e+01 0.000000e+00 0.000000e+00 2.724967e+01 -3.891605e-23 6.329265e-22 -1.620092e-01
0.133825       -3.893576e-23 6.332496e-22 2.577803e+01 0.000000e+00 0.000000e+00 2.594696e+01 -3.893576e-23 6.332496e-22 -1.689363e-01
0.134468       -3.898357e-23 6.340052e-22 2.592544e+01 0.000000e+00 0.000000e+00 2.610118e+01 -3.898357e-23 6.340052e-22 -1.757400e-01
0.13511        -3.901811e-23 6.345617e-22 2.380524e+01 0.000000e+00 0.000000e+00 2.398778e+01 -3.901811e-23 6.345617e-22 -1.825389e-01
0.135753       -3.911138e-23 6.360987e-22 2.467690e+01 0.000000e+00 0.000000e+00 2.486625e+01 -3.911138e-23 6.360987e-22 -1.893433e-01
0.136395       -3.912099e-23 6.362311e-22 2.323887e+01 0.000000e+00 0.000000e+00 2.343496e+01 -3.912099e-23 6.362311e-22 -1.960956e-01
0.137044       -3.920475e-23 6.376007e-22 2.165335e+01 0.000000e+00 0.000000e+00 2.185615e+01 -3.920475e-23 6.376007e-22 -2.028044e-01
0.137693       -3.936306e-23 6.402219e-22 2.064634e+01 0.000000e+00 0.000000e+00 2.085592e+01 -3.936306e-23 6.402219e-22 -2.095829e-01
0.138342       -3.934440e-23 6.398469e-22 2.013342e+01 0.000000e+00 0.000000e+00 2.034964e+01 -3.934440e-23 6.398469e-22 -2.162182e-01
0.138998       -3.941157e-23 6.409594e-22 1.742815e+01 0.000000e+00 0.000000e+00 1.765106e+01 -3.941157e-23 6.409594e-22 -2.229179e-01
0.139654       -3.959374e-23 6.439543e-22 2.028544e+01 0.000000e+00 0.000000e+00 2.051515e+01 -3.959374e-23 6.439543e-22 -2.297029e-01
0.140317       -3.963833e-23 6.445481e-22 2.157290e+01 0.000000e+00 0.000000e+00 2.180937e+01 -3.963833e-23 6.445481e-22 -2.364753e-01
0.14098        -3.954049e-23 6.430207e-22 2.133977e+01 0.000000e+00 0.000000e+00 2.158300e+01 -3.954049e-23 6.430207e-22 -2.432279e-01
0.141651       -3.969804e-23 6.454776e-22 2.169712e+01 0.000000e+00 0.000000e+00 2.194759e+01 -3.969804e-23 6.454776e-22 -2.504689e-01
0.142322       -3.982902e-23 6.475956e-22 2.298689e+01 0.000000e+00 0.000000e+00 2.324445e+01 -3.982902e-23 6.475956e-22 -2.575574e-01
0.142992       -3.984951e-23 6.479032e-22 2.227343e+01 0.000000e+00 0.000000e+00 2.253778e+01 -3.984951e-23 6.479032e-22 -2.643477e-01
0.143663       -3.991075e-23 6.488515e-22 2.244884e+01 0.000000e+00 0.000000e+00 2.271996e+01 -3.991075e-23 6.488515e-22 -2.711222e-01
0.144342       -3.993200e-23 6.491491e-22 2.269776e+01 0.000000e+00 0.000000e+00 2.297552e+01 -3.993200e-23 6.491491e-22 -2.777600e-01
0.145021       -3.996720e-23 6.497047e-22 2.345380e+01 0.000000e+00 0.000000e+00 2.373807e+01 -3.996720e-23 6.497047e-22 -2.842696e-01
0.145699       -3.992495e-23 6.489741e-22 2.046916e+01 0.000000e+00 0.000000e+00 2.075969e+01 -3.992495e-23 6.489741e-22 -2.905239e-01
0.146387       -3.990593e-23 6.486146e-22 2.048223e+01 0.000000e+00 0.000000e+00 2.077900e+01 -3.990593e-23 6.486146e-22 -2.967650e-01
0.147065       -3.987642e-23 6.480770e-22 1.870160e+01 0.000000e+00 0.000000e+00 1.900448e+01 -3.987642e-23 6.480770e-22 -3.028795e-01
0.147744       -3.983966e-23 6.474118e-22 1.914412e+01 0.000000e+00 0.000000e+00 1.945304e+01 -3.983966e-23 6.474118e-22 -3.089184e-01
0.148414       -3.979240e-23 6.465752e-22 1.783016e+01 0.000000e+00 0.000000e+00 1.814493e+01 -3.979240e-23 6.465752e-22 -3.147621e-01
0.149207       -3.977806e-23 6.462639e-22 1.810715e+01 0.000000e+00 0.000000e+00 1.842895e+01 -3.977806e-23 6.462639e-22 -3.218079e-01
0.15           -3.974746e-23 6.456855e-22 1.774993e+01 0.000000e+00 0.000000e+00 1.807858e+01 -3.974746e-23 6.456855e-22 -3.286549e-01
0.150649       -3.967891e-23 6.444966e-22 1.744971e+01 0.000000e+00 0.000000e+00 1.778364e+01 -3.967891e-23 6.444966e-22 -3.339335e-01
0.151299       -3.961039e-23 6.433128e-22 1.723793e+01 0.000000e+00 0.000000e+00 1.757723e+01 -3.961039e-23 6.433128e-22 -3.393003e-01