# Force       
# CofR        : (0.000000e+00 0.000000e+00 0.000000e+00)
#
# Time        	total_x total_y total_z	pressure_x pressure_y pressure_z	viscous_x viscous_y viscous_z
2.00161        6.781528e-01 5.378169e-01 1.321925e-24 6.781769e-01 5.329178e-01 0.000000e+00 -2.411389e-05 4.899037e-03 1.321925e-24
2.00323        6.755919e-01 5.196038e-01 1.394392e-24 6.756233e-01 5.147664e-01 0.000000e+00 -3.143267e-05 4.837459e-03 1.394392e-24
2.00483        6.688857e-01 5.128034e-01 1.460423e-24 6.689226e-01 5.080148e-01 0.000000e+00 -3.684107e-05 4.788613e-03 1.460423e-24
2.00641        6.530012e-01 3.980459e-01 1.536126e-24 6.530426e-01 3.932890e-01 0.000000e+00 -4.141136e-05 4.756878e-03 1.536126e-24
2.00799        6.511483e-01 3.150972e-01 1.647458e-24 6.511953e-01 3.103827e-01 0.000000e+00 -4.696840e-05 4.714490e-03 1.647458e-24
2.00956        6.576848e-01 3.642125e-01 1.751961e-24 6.577320e-01 3.595548e-01 0.000000e+00 -4.724604e-05 4.657722e-03 1.751961e-24
2.01111        6.617893e-01 4.559634e-01 1.845813e-24 6.618345e-01 4.513702e-01 0.000000e+00 -4.519959e-05 4.593229e-03 1.845813e-24
2.01263        6.698712e-01 3.827729e-01 1.966239e-24 6.699111e-01 3.782542e-01 0.000000e+00 -3.994678e-05 4.518705e-03 1.966239e-24
2.01412        6.787198e-01 2.624608e-01 2.076942e-24 6.787506e-01 2.580183e-01 0.000000e+00 -3.080764e-05 4.442530e-03 2.076942e-24
2.01558        6.841961e-01 1.053467e-01 2.164227e-24 6.842136e-01 1.009838e-01 0.000000e+00 -1.746886e-05 4.362954e-03 2.164227e-24
2.01701        6.890480e-01 1.087664e-01 2.234393e-24 6.890488e-01 1.044832e-01 0.000000e+00 -7.289927e-07 4.283112e-03 2.234393e-24
2.01841        6.977640e-01 1.195481e-01 2.306790e-24 6.977501e-01 1.153584e-01 0.000000e+00 1.387013e-05 4.189699e-03 2.306790e-24
2.01977        7.123066e-01 1.006341e-01 2.378705e-24 7.122765e-01 9.654365e-02 0.000000e+00 3.001426e-05 4.090488e-03 2.378705e-24
2.02111        7.270663e-01 1.134008e-01 2.473594e-24 7.270218e-01 1.094264e-01 0.000000e+00 4.459022e-05 3.974405e-03 2.473594e-24
2.02241        7.409035e-01 1.949383e-01 2.554898e-24 7.408456e-01 1.910709e-01 0.000000e+00 5.786971e-05 3.867427e-03 2.554898e-24
2.0237         7.398654e-01 2.646149e-01 2.602648e-24 7.397991e-01 2.608270e-01 0.000000e+00 6.630680e-05 3.787923e-03 2.602648e-24
2.025          7.457693e-01 3.295928e-01 2.591394e-24 7.457002e-01 3.258626e-01 0.000000e+00 6.902907e-05 3.730204e-03 2.591394e-24
2.02631        7.481257e-01 4.453713e-01 2.558560e-24 7.480559e-01 4.416955e-01 0.000000e+00 6.975371e-05 3.675774e-03 2.558560e-24
2.02762        7.501819e-01 3.618096e-01 2.537906e-24 7.501128e-01 3.581727e-01 0.000000e+00 6.909526e-05 3.636968e-03 2.537906e-24
2.02896        7.404984e-01 4.043153e-01 2.454042e-24 7.404381e-01 4.006938e-01 0.000000e+00 6.024164e-05 3.621463e-03 2.454042e-24
2.03033        7.205131e-01 4.216833e-01 2.459640e-24 7.204684e-01 4.180840e-01 0.000000e+00 4.463940e-05 3.599337e-03 2.459640e-24
2.03175        7.023002e-01 4.685067e-01 2.706493e-24 7.022721e-01 4.649167e-01 0.000000e+00 2.809410e-05 3.589985e-03 2.706493e-24
2.03327        6.981831e-01 5.123810e-01 3.004562e-24 6.981731e-01 5.088112e-01 0.000000e+00 9.939856e-06 3.569783e-03 3.004562e-24
2.03492        6.821333e-01 5.310892e-01 3.431000e-24 6.821403e-01 5.275569e-01 0.000000e+00 -6.967963e-06 3.532265e-03 3.431000e-24
2.03655        6.647256e-01 4.511169e-01 3.858882e-24 6.647435e-01 4.476239e-01 0.000000e+00 -1.784708e-05 3.492972e-03 3.858882e-24
2.03816        6.523252e-01 3.867687e-01 4.236894e-24 6.523507e-01 3.833179e-01 0.000000e+00 -2.550352e-05 3.450741e-03 4.236894e-24
2.03974        6.325361e-01 3.287184e-01 4.560352e-24 6.325652e-01 3.253036e-01 0.000000e+00 -2.905887e-05 3.414735e-03 4.560352e-24
2.04133        6.102838e-01 2.340068e-01 4.843185e-24 6.103159e-01 2.306280e-01 0.000000e+00 -3.209771e-05 3.378808e-03 4.843185e-24
2.04292        5.806267e-01 2.234782e-01 4.942635e-24 5.806557e-01 2.201146e-01 0.000000e+00 -2.896239e-05 3.363631e-03 4.942635e-24
2.04452        5.364175e-01 1.972459e-01 4.934711e-24 5.364411e-01 1.938786e-01 0.000000e+00 -2.359391e-05 3.367266e-03 4.934711e-24
2.04612        4.889149e-01 1.293484e-01 4.913771e-24 4.889384e-01 1.259688e-01 0.000000e+00 -2.351982e-05 3.379581e-03 4.913771e-24
2.04806        4.380384e-01 -3.242510e-02 4.859637e-24 4.380641e-01 -3.583307e-02 0.000000e+00 -2.563485e-05 3.407970e-03 4.859637e-24
2.05           3.826560e-01 -9.956917e-03 4.772609e-24 3.826847e-01 -1.338704e-02 0.000000e+00 -2.869988e-05 3.430124e-03 4.772609e-24
2.0516         3.363978e-01 6.978903e-02 4.708637e-24 3.364307e-01 6.634417e-02 0.000000e+00 -3.291913e-05 3.444855e-03 4.708637e-24
2.05317        3.027511e-01 -1.585374e-02 4.655500e-24 3.027909e-01 -1.931464e-02 0.000000e+00 -3.988786e-05 3.460898e-03 4.655500e-24
2.05475        2.759536e-01 6.433642e-03 4.596240e-24 2.760018e-01 2.959625e-03 0.000000e+00 -4.818902e-05 3.474017e-03 4.596240e-24
2.05639        2.227497e-01 -3.391414e-02 4.546510e-24 2.228098e-01 -3.739986e-02 0.000000e+00 -6.015636e-05 3.485721e-03 4.546510e-24
