# Moment      
# CofR        : (0.000000e+00 0.000000e+00 0.000000e+00)
#
# Time        	total_x total_y total_z	pressure_x pressure_y pressure_z	viscous_x viscous_y viscous_z
2.00161        2.490301e-24 -3.944650e-23 1.584960e+01 0.000000e+00 0.000000e+00 1.569835e+01 2.490301e-24 -3.944650e-23 1.512503e-01
2.00323        2.627011e-24 -4.171190e-23 1.531408e+01 0.000000e+00 0.000000e+00 1.516470e+01 2.627011e-24 -4.171190e-23 1.493801e-01
2.00483        2.751802e-24 -4.376255e-23 1.509960e+01 0.000000e+00 0.000000e+00 1.495170e+01 2.751802e-24 -4.376255e-23 1.478996e-01
2.00641        2.895349e-24 -4.610757e-23 1.161515e+01 0.000000e+00 0.000000e+00 1.146820e+01 2.895349e-24 -4.610757e-23 1.469490e-01
2.00799        3.106727e-24 -4.953711e-23 9.085747e+00 0.000000e+00 0.000000e+00 8.940088e+00 3.106727e-24 -4.953711e-23 1.456592e-01
2.00956        3.303983e-24 -5.273978e-23 1.065526e+01 0.000000e+00 0.000000e+00 1.051135e+01 3.303983e-24 -5.273978e-23 1.439111e-01
2.01111        3.480787e-24 -5.560139e-23 1.351167e+01 0.000000e+00 0.000000e+00 1.336976e+01 3.480787e-24 -5.560139e-23 1.419159e-01
2.01263        3.707785e-24 -5.928355e-23 1.125953e+01 0.000000e+00 0.000000e+00 1.111994e+01 3.707785e-24 -5.928355e-23 1.395953e-01
2.01412        3.915983e-24 -6.265726e-23 7.511734e+00 0.000000e+00 0.000000e+00 7.374524e+00 3.915983e-24 -6.265726e-23 1.372100e-01
2.01558        4.079641e-24 -6.530580e-23 2.623561e+00 0.000000e+00 0.000000e+00 2.488852e+00 4.079641e-24 -6.530580e-23 1.347087e-01
2.01701        4.210945e-24 -6.743718e-23 2.657024e+00 0.000000e+00 0.000000e+00 2.524832e+00 4.210945e-24 -6.743718e-23 1.321919e-01
2.01841        4.346006e-24 -6.964232e-23 2.917687e+00 0.000000e+00 0.000000e+00 2.788436e+00 4.346006e-24 -6.964232e-23 1.292503e-01
2.01977        4.480298e-24 -7.181757e-23 2.277519e+00 0.000000e+00 0.000000e+00 2.151395e+00 4.480298e-24 -7.181757e-23 1.261237e-01
2.02111        4.659768e-24 -7.469671e-23 2.616996e+00 0.000000e+00 0.000000e+00 2.494530e+00 4.659768e-24 -7.469671e-23 1.224660e-01
2.02241        4.814014e-24 -7.715025e-23 5.062851e+00 0.000000e+00 0.000000e+00 4.943756e+00 4.814014e-24 -7.715025e-23 1.190956e-01
2.0237         4.904292e-24 -7.853077e-23 7.162054e+00 0.000000e+00 0.000000e+00 7.045456e+00 4.904292e-24 -7.853077e-23 1.165978e-01
2.025          4.883595e-24 -7.804433e-23 9.125328e+00 0.000000e+00 0.000000e+00 9.010533e+00 4.883595e-24 -7.804433e-23 1.147954e-01
2.02631        4.822021e-24 -7.689400e-23 1.267210e+01 0.000000e+00 0.000000e+00 1.255900e+01 4.822021e-24 -7.689400e-23 1.131025e-01
2.02762        4.783437e-24 -7.614781e-23 1.006211e+01 0.000000e+00 0.000000e+00 9.950210e+00 4.783437e-24 -7.614781e-23 1.119010e-01
2.02896        4.625536e-24 -7.342904e-23 1.134530e+01 0.000000e+00 0.000000e+00 1.123385e+01 4.625536e-24 -7.342904e-23 1.114473e-01
2.03033        4.637273e-24 -7.352946e-23 1.188095e+01 0.000000e+00 0.000000e+00 1.177015e+01 4.637273e-24 -7.352946e-23 1.107963e-01
2.03175        5.105843e-24 -8.122687e-23 1.331442e+01 0.000000e+00 0.000000e+00 1.320387e+01 5.105843e-24 -8.122687e-23 1.105470e-01
2.03327        5.673210e-24 -9.052545e-23 1.466417e+01 0.000000e+00 0.000000e+00 1.455421e+01 5.673210e-24 -9.052545e-23 1.099603e-01
2.03492        6.485284e-24 -1.038171e-22 1.523734e+01 0.000000e+00 0.000000e+00 1.512851e+01 6.485284e-24 -1.038171e-22 1.088271e-01
2.03655        7.298006e-24 -1.171828e-22 1.279933e+01 0.000000e+00 0.000000e+00 1.269171e+01 7.298006e-24 -1.171828e-22 1.076260e-01
2.03816        8.015792e-24 -1.290140e-22 1.083804e+01 0.000000e+00 0.000000e+00 1.073171e+01 8.015792e-24 -1.290140e-22 1.063266e-01
2.03974        8.630712e-24 -1.391729e-22 9.065582e+00 0.000000e+00 0.000000e+00 8.960365e+00 8.630712e-24 -1.391729e-22 1.052164e-01
2.04133        9.168004e-24 -1.480686e-22 6.144224e+00 0.000000e+00 0.000000e+00 6.040117e+00 9.168004e-24 -1.480686e-22 1.041062e-01
2.04292        9.357650e-24 -1.512285e-22 5.835358e+00 0.000000e+00 0.000000e+00 5.731719e+00 9.357650e-24 -1.512285e-22 1.036387e-01
2.04452        9.343584e-24 -1.510614e-22 5.026809e+00 0.000000e+00 0.000000e+00 4.923049e+00 9.343584e-24 -1.510614e-22 1.037599e-01
2.04612        9.304316e-24 -1.504971e-22 2.942610e+00 0.000000e+00 0.000000e+00 2.838446e+00 9.304316e-24 -1.504971e-22 1.041638e-01
2.04806        9.202041e-24 -1.489156e-22 -2.025771e+00 0.000000e+00 0.000000e+00 -2.130848e+00 9.202041e-24 -1.489156e-22 1.050763e-01
2.05           9.036882e-24 -1.463377e-22 -1.273669e+00 0.000000e+00 0.000000e+00 -1.379470e+00 9.036882e-24 -1.463377e-22 1.058005e-01
2.0516         8.915328e-24 -1.444510e-22 1.251730e+00 0.000000e+00 0.000000e+00 1.145439e+00 8.915328e-24 -1.444510e-22 1.062915e-01
2.05317        8.814519e-24 -1.428972e-22 -1.389682e+00 0.000000e+00 0.000000e+00 -1.496512e+00 8.814519e-24 -1.428972e-22 1.068293e-01
2.05475        8.701810e-24 -1.411526e-22 -6.785630e-01 0.000000e+00 0.000000e+00 -7.858433e-01 8.701810e-24 -1.411526e-22 1.072803e-01
2.05639        8.607290e-24 -1.397218e-22 -1.874522e+00 0.000000e+00 0.000000e+00 -1.982216e+00 8.607290e-24 -1.397218e-22 1.076945e-01
